<?xml version="1.0" encoding="UTF-8"?>

<!-- generated on Sat Jan 30 09:19:07 2021 by Eclipse SUMO sumo Version 1.8.0
<configuration xmlns:xsi="http://www.w3.org/2001/XMLSchema-instance" xsi:noNamespaceSchemaLocation="http://sumo.dlr.de/xsd/sumoConfiguration.xsd">

    <input>
        <net-file value="./config/demo.net.xml"/>
        <route-files value="./config/demo.rou30000.xml"/>
        <additional-files value="./config/demo.detector.xml"/>
    </input>

    <output>
        <human-readable-time value="true"/>
        <summary-output value="./config/demo.summary.xml"/>
        <tripinfo-output value="./config/demo.tripinfo.xml"/>
        <statistic-output value="./config/demo.statistic.xml"/>
    </output>

    <processing>
        <scale value="1.2"/>
        <time-to-teleport value="140"/>
        <waiting-time-memory value="50"/>
    </processing>

    <report>
        <no-warnings value="true"/>
        <duration-log.disable value="true"/>
        <no-step-log value="true"/>
    </report>

    <traci_server>
        <remote-port value="16011"/>
    </traci_server>

    <random_number>
        <seed value="96193"/>
    </random_number>

    <gui_only>
        <gui-settings-file value="./config/demo.settings.xml"/>
    </gui_only>

</configuration>
-->

<tripinfos xmlns:xsi="http://www.w3.org/2001/XMLSchema-instance" xsi:noNamespaceSchemaLocation="http://sumo.dlr.de/xsd/tripinfo_file.xsd">
    <tripinfo id="carflow51.0" depart="00:00:03" departLane="D12_0" departPos="4.10" departSpeed="0.00" departDelay="00:00:03" arrival="00:01:23" arrivalLane="D11_0" arrivalPos="486.40" arrivalSpeed="13.20" duration="00:01:20" routeLength="973.38" waitingTime="00:00:01" waitingCount="1" stopTime="00:00:00" timeLoss="00:00:170.13" rerouteNo="0" devices="tripinfo_carflow51.0 routing_carflow51.0" vType="car3" speedFactor="1.13" vaporized=""/>
    <tripinfo id="carflow51.2" depart="00:00:40" departLane="D12_0" departPos="4.10" departSpeed="0.00" departDelay="00:00:060.67" arrival="00:02:05" arrivalLane="D11_1" arrivalPos="486.40" arrivalSpeed="15.57" duration="00:01:25" routeLength="973.38" waitingTime="00:00:00" waitingCount="0" stopTime="00:00:00" timeLoss="00:00:210.58" rerouteNo="0" devices="tripinfo_carflow51.2 routing_carflow51.2" vType="car3" speedFactor="1.13" vaporized=""/>
    <tripinfo id="carflow51.1" depart="00:00:34" departLane="D12_0" departPos="4.10" departSpeed="0.00" departDelay="00:00:000.67" arrival="00:02:12" arrivalLane="D11_0" arrivalPos="486.40" arrivalSpeed="11.30" duration="00:01:38" routeLength="973.38" waitingTime="00:00:00" waitingCount="0" stopTime="00:00:00" timeLoss="00:00:180.98" rerouteNo="0" devices="tripinfo_carflow51.1 routing_carflow51.1" vType="car3" speedFactor="0.91" vaporized=""/>
    <tripinfo id="carflow51.3" depart="00:01:07" departLane="D12_0" departPos="4.10" departSpeed="0.00" departDelay="00:00:000.33" arrival="00:02:46" arrivalLane="D11_0" arrivalPos="486.40" arrivalSpeed="12.87" duration="00:01:39" routeLength="973.38" waitingTime="00:00:01" waitingCount="1" stopTime="00:00:00" timeLoss="00:00:220.36" rerouteNo="0" devices="tripinfo_carflow51.3 routing_carflow51.3" vType="car3" speedFactor="0.93" vaporized=""/>
    <tripinfo id="carflow51.4" depart="00:01:12" departLane="D12_0" departPos="4.10" departSpeed="0.00" departDelay="00:00:050.33" arrival="00:02:49" arrivalLane="D11_1" arrivalPos="486.40" arrivalSpeed="13.54" duration="00:01:37" routeLength="973.38" waitingTime="00:00:00" waitingCount="0" stopTime="00:00:00" timeLoss="00:00:240.84" rerouteNo="0" devices="tripinfo_carflow51.4 routing_carflow51.4" vType="car3" speedFactor="1.00" vaporized=""/>
    <tripinfo id="carflow51.6" depart="00:01:46" departLane="D12_0" departPos="4.10" departSpeed="0.00" departDelay="00:00:06" arrival="00:03:04" arrivalLane="D11_1" arrivalPos="486.40" arrivalSpeed="14.41" duration="00:01:18" routeLength="973.38" waitingTime="00:00:00" waitingCount="0" stopTime="00:00:00" timeLoss="00:00:190.14" rerouteNo="0" devices="tripinfo_carflow51.6 routing_carflow51.6" vType="car3" speedFactor="1.21" vaporized=""/>
    <tripinfo id="carflow51.5" depart="00:01:40" departLane="D12_0" departPos="4.10" departSpeed="0.00" departDelay="00:00:00" arrival="00:03:08" arrivalLane="D11_0" arrivalPos="486.40" arrivalSpeed="13.41" duration="00:01:28" routeLength="973.38" waitingTime="00:00:00" waitingCount="0" stopTime="00:00:00" timeLoss="00:00:170.14" rerouteNo="0" devices="tripinfo_carflow51.5 routing_carflow51.5" vType="car3" speedFactor="1.00" vaporized=""/>
    <tripinfo id="carflow22.0" depart="00:00:00" departLane="D18_0" departPos="4.10" departSpeed="0.00" departDelay="00:00:00" arrival="00:03:37" arrivalLane="D13_0" arrivalPos="500.00" arrivalSpeed="13.40" duration="00:03:37" routeLength="2477.83" waitingTime="00:00:00" waitingCount="0" stopTime="00:00:00" timeLoss="00:00:320.45" rerouteNo="1" devices="tripinfo_carflow22.0 routing_carflow22.0" vType="car3" speedFactor="0.97" vaporized=""/>
    <tripinfo id="carflow51.7" depart="00:02:14" departLane="D12_0" departPos="4.10" departSpeed="0.00" departDelay="00:00:000.67" arrival="00:03:40" arrivalLane="D11_0" arrivalPos="486.40" arrivalSpeed="14.08" duration="00:01:26" routeLength="973.38" waitingTime="00:00:00" waitingCount="0" stopTime="00:00:00" timeLoss="00:00:170.85" rerouteNo="0" devices="tripinfo_carflow51.7 routing_carflow51.7" vType="car3" speedFactor="1.06" vaporized=""/>
    <tripinfo id="carflow50.0" depart="00:00:02" departLane="D10_0" departPos="6.10" departSpeed="0.00" departDelay="00:00:02" arrival="00:03:41" arrivalLane="D9_0" arrivalPos="248.50" arrivalSpeed="15.30" duration="00:03:39" routeLength="966.70" waitingTime="00:02:22" waitingCount="2" stopTime="00:00:00" timeLoss="00:02:370.60" rerouteNo="1" devices="tripinfo_carflow50.0 routing_carflow50.0" vType="car2" speedFactor="1.14" vaporized=""/>
    <tripinfo id="carflow51.8" depart="00:02:20" departLane="D12_0" departPos="4.10" departSpeed="0.00" departDelay="00:00:060.67" arrival="00:03:54" arrivalLane="D11_0" arrivalPos="486.40" arrivalSpeed="12.67" duration="00:01:34" routeLength="973.38" waitingTime="00:00:00" waitingCount="0" stopTime="00:00:00" timeLoss="00:00:180.57" rerouteNo="0" devices="tripinfo_carflow51.8 routing_carflow51.8" vType="car3" speedFactor="0.94" vaporized=""/>
    <tripinfo id="carflow51.9" depart="00:02:47" departLane="D12_0" departPos="4.10" departSpeed="0.00" departDelay="00:00:000.34" arrival="00:04:20" arrivalLane="D11_0" arrivalPos="486.40" arrivalSpeed="11.28" duration="00:01:33" routeLength="973.38" waitingTime="00:00:00" waitingCount="0" stopTime="00:00:00" timeLoss="00:00:180.36" rerouteNo="0" devices="tripinfo_carflow51.9 routing_carflow51.9" vType="car3" speedFactor="0.95" vaporized=""/>
    <tripinfo id="carflow51.10" depart="00:02:52" departLane="D12_0" departPos="4.10" departSpeed="0.00" departDelay="00:00:050.34" arrival="00:04:22" arrivalLane="D11_1" arrivalPos="486.40" arrivalSpeed="11.88" duration="00:01:30" routeLength="973.38" waitingTime="00:00:00" waitingCount="0" stopTime="00:00:00" timeLoss="00:00:220.35" rerouteNo="0" devices="tripinfo_carflow51.10 routing_carflow51.10" vType="car3" speedFactor="1.05" vaporized=""/>
    <tripinfo id="carflow20.1" depart="00:00:45" departLane="D8_0" departPos="6.10" departSpeed="0.00" departDelay="00:00:110.67" arrival="00:04:32" arrivalLane="D9_1" arrivalPos="248.50" arrivalSpeed="11.15" duration="00:03:47" routeLength="2476.37" waitingTime="00:00:00" waitingCount="0" stopTime="00:00:00" timeLoss="00:00:400.60" rerouteNo="1" devices="tripinfo_carflow20.1 routing_carflow20.1" vType="car2" speedFactor="0.96" vaporized=""/>
    <tripinfo id="carflow51.11" depart="00:03:20" departLane="D12_0" departPos="4.10" departSpeed="0.00" departDelay="00:00:00" arrival="00:04:34" arrivalLane="D11_1" arrivalPos="486.40" arrivalSpeed="15.84" duration="00:01:14" routeLength="973.38" waitingTime="00:00:00" waitingCount="0" stopTime="00:00:00" timeLoss="00:00:140.70" rerouteNo="0" devices="tripinfo_carflow51.11 routing_carflow51.11" vType="car3" speedFactor="1.21" vaporized=""/>
    <tripinfo id="carflow20.0" depart="00:00:08" departLane="D8_0" departPos="6.10" departSpeed="0.00" departDelay="00:00:08" arrival="00:04:35" arrivalLane="D9_0" arrivalPos="248.50" arrivalSpeed="10.08" duration="00:04:27" routeLength="2476.37" waitingTime="00:00:00" waitingCount="0" stopTime="00:00:00" timeLoss="00:00:470.89" rerouteNo="1" devices="tripinfo_carflow20.0 routing_carflow20.0" vType="car2" speedFactor="0.82" vaporized=""/>
    <tripinfo id="carflow51.12" depart="00:03:25" departLane="D12_0" departPos="4.10" departSpeed="0.00" departDelay="00:00:05" arrival="00:04:44" arrivalLane="D11_0" arrivalPos="486.40" arrivalSpeed="12.68" duration="00:01:19" routeLength="973.38" waitingTime="00:00:00" waitingCount="0" stopTime="00:00:00" timeLoss="00:00:150.84" rerouteNo="0" devices="tripinfo_carflow51.12 routing_carflow51.12" vType="car3" speedFactor="1.13" vaporized=""/>
    <tripinfo id="carflow37.0" depart="00:00:00" departLane="D24_0" departPos="4.10" departSpeed="0.00" departDelay="00:00:00" arrival="00:05:00" arrivalLane="D13_0" arrivalPos="500.00" arrivalSpeed="13.77" duration="00:05:00" routeLength="3440.33" waitingTime="00:00:00" waitingCount="0" stopTime="00:00:00" timeLoss="00:00:500.68" rerouteNo="1" devices="tripinfo_carflow37.0 routing_carflow37.0" vType="car3" speedFactor="1.00" vaporized=""/>
    <tripinfo id="carflow20.2" depart="00:01:23" departLane="D8_0" departPos="6.10" departSpeed="0.00" departDelay="00:00:160.33" arrival="00:05:01" arrivalLane="D9_0" arrivalPos="248.50" arrivalSpeed="11.05" duration="00:03:38" routeLength="2476.37" waitingTime="00:00:00" waitingCount="0" stopTime="00:00:00" timeLoss="00:00:370.67" rerouteNo="1" devices="tripinfo_carflow20.2 routing_carflow20.2" vType="car2" speedFactor="0.99" vaporized=""/>
    <tripinfo id="carflow26.0" depart="00:00:12" departLane="D18_0" departPos="5.10" departSpeed="0.00" departDelay="00:00:12" arrival="00:05:21" arrivalLane="D23_0" arrivalPos="486.40" arrivalSpeed="12.35" duration="00:05:09" routeLength="1964.95" waitingTime="00:02:21" waitingCount="1" stopTime="00:00:00" timeLoss="00:02:540.14" rerouteNo="1" devices="tripinfo_carflow26.0 routing_carflow26.0" vType="car4" speedFactor="1.05" vaporized=""/>
    <tripinfo id="carflow14.0" depart="00:00:08" departLane="D6_0" departPos="5.10" departSpeed="0.00" departDelay="00:00:08" arrival="00:05:28" arrivalLane="D7_0" arrivalPos="500.00" arrivalSpeed="13.12" duration="00:05:20" routeLength="3959.30" waitingTime="00:00:00" waitingCount="0" stopTime="00:00:00" timeLoss="00:00:470.18" rerouteNo="1" devices="tripinfo_carflow14.0 routing_carflow14.0" vType="car4" speedFactor="1.05" vaporized=""/>
    <tripinfo id="carflow42.1" depart="00:00:34" departLane="D10_0" departPos="6.10" departSpeed="0.00" departDelay="00:00:000.67" arrival="00:05:35" arrivalLane="D11_0" arrivalPos="486.40" arrivalSpeed="13.22" duration="00:05:01" routeLength="1990.21" waitingTime="00:02:21" waitingCount="1" stopTime="00:00:00" timeLoss="00:02:520.29" rerouteNo="1" devices="tripinfo_carflow42.1 routing_carflow42.1" vType="car2" speedFactor="1.12" vaporized=""/>
    <tripinfo id="carflow33.0" depart="00:00:03" departLane="D22_0" departPos="6.10" departSpeed="0.00" departDelay="00:00:03" arrival="00:05:36" arrivalLane="D15_0" arrivalPos="500.00" arrivalSpeed="14.20" duration="00:05:33" routeLength="2448.63" waitingTime="00:02:21" waitingCount="1" stopTime="00:00:00" timeLoss="00:02:520.10" rerouteNo="1" devices="tripinfo_carflow33.0 routing_carflow33.0" vType="car2" speedFactor="1.08" vaporized=""/>
    <tripinfo id="carflow42.0" depart="00:00:00" departLane="D10_0" departPos="6.10" departSpeed="0.00" departDelay="00:00:00" arrival="00:05:49" arrivalLane="D11_0" arrivalPos="486.40" arrivalSpeed="13.06" duration="00:05:49" routeLength="1990.21" waitingTime="00:02:39" waitingCount="4" stopTime="00:00:00" timeLoss="00:03:200.9" rerouteNo="1" devices="tripinfo_carflow42.0 routing_carflow42.0" vType="car2" speedFactor="0.97" vaporized=""/>
    <tripinfo id="carflow11.0" depart="00:00:13" departLane="D4_0" departPos="4.10" departSpeed="0.00" departDelay="00:00:13" arrival="00:05:53" arrivalLane="D11_2" arrivalPos="486.40" arrivalSpeed="14.41" duration="00:05:40" routeLength="2478.37" waitingTime="00:02:16" waitingCount="1" stopTime="00:00:00" timeLoss="00:02:560.10" rerouteNo="1" devices="tripinfo_carflow11.0 routing_carflow11.0" vType="car3" speedFactor="1.10" vaporized=""/>
    <tripinfo id="carflow5.0" depart="00:00:06" departLane="D2_0" departPos="4.10" departSpeed="0.00" departDelay="00:00:06" arrival="00:05:54" arrivalLane="D9_0" arrivalPos="248.50" arrivalSpeed="13.63" duration="00:05:48" routeLength="2469.28" waitingTime="00:02:21" waitingCount="1" stopTime="00:00:00" timeLoss="00:03:040.46" rerouteNo="1" devices="tripinfo_carflow5.0 routing_carflow5.0" vType="car3" speedFactor="1.09" vaporized=""/>
    <tripinfo id="carflow51.14" depart="00:04:01" departLane="D12_0" departPos="4.10" departSpeed="0.00" departDelay="00:00:070.67" arrival="00:05:54" arrivalLane="D11_0" arrivalPos="486.40" arrivalSpeed="10.57" duration="00:01:53" routeLength="973.38" waitingTime="00:00:01" waitingCount="1" stopTime="00:00:00" timeLoss="00:00:340.31" rerouteNo="0" devices="tripinfo_carflow51.14 routing_carflow51.14" vType="car3" speedFactor="0.91" vaporized=""/>
    <tripinfo id="carflow51.13" depart="00:03:54" departLane="D12_0" departPos="4.10" departSpeed="0.00" departDelay="00:00:000.67" arrival="00:05:57" arrivalLane="D11_0" arrivalPos="486.40" arrivalSpeed="9.51" duration="00:02:03" routeLength="973.38" waitingTime="00:00:00" waitingCount="0" stopTime="00:00:00" timeLoss="00:00:300.20" rerouteNo="0" devices="tripinfo_carflow51.13 routing_carflow51.13" vType="car3" speedFactor="0.77" vaporized=""/>
    <tripinfo id="carflow11.1" depart="00:00:34" departLane="D4_0" departPos="4.10" departSpeed="0.00" departDelay="00:00:000.67" arrival="00:05:58" arrivalLane="D11_1" arrivalPos="486.40" arrivalSpeed="12.10" duration="00:05:24" routeLength="2478.37" waitingTime="00:01:49" waitingCount="1" stopTime="00:00:00" timeLoss="00:02:300.15" rerouteNo="1" devices="tripinfo_carflow11.1 routing_carflow11.1" vType="car3" speedFactor="1.03" vaporized=""/>
    <tripinfo id="carflow51.15" depart="00:04:27" departLane="D12_0" departPos="4.10" departSpeed="0.00" departDelay="00:00:000.34" arrival="00:06:06" arrivalLane="D11_0" arrivalPos="486.40" arrivalSpeed="11.40" duration="00:01:39" routeLength="973.38" waitingTime="00:00:01" waitingCount="1" stopTime="00:00:00" timeLoss="00:00:220.32" rerouteNo="0" devices="tripinfo_carflow51.15 routing_carflow51.15" vType="car3" speedFactor="0.93" vaporized=""/>
    <tripinfo id="carflow51.16" depart="00:04:32" departLane="D12_0" departPos="4.10" departSpeed="0.00" departDelay="00:00:050.34" arrival="00:06:08" arrivalLane="D11_1" arrivalPos="486.40" arrivalSpeed="11.96" duration="00:01:36" routeLength="973.38" waitingTime="00:00:02" waitingCount="2" stopTime="00:00:00" timeLoss="00:00:250.49" rerouteNo="0" devices="tripinfo_carflow51.16 routing_carflow51.16" vType="car3" speedFactor="1.01" vaporized=""/>
    <tripinfo id="carflow39.2" depart="00:01:14" departLane="D24_0" departPos="5.10" departSpeed="0.00" departDelay="00:00:070.33" arrival="00:06:14" arrivalLane="D17_1" arrivalPos="486.40" arrivalSpeed="12.50" duration="00:05:00" routeLength="1958.50" waitingTime="00:01:43" waitingCount="8" stopTime="00:00:00" timeLoss="00:02:520.22" rerouteNo="1" devices="tripinfo_carflow39.2 routing_carflow39.2" vType="car4" speedFactor="1.12" vaporized=""/>
    <tripinfo id="carflow20.4" depart="00:02:26" departLane="D8_0" departPos="6.10" departSpeed="0.00" departDelay="00:00:120.67" arrival="00:06:16" arrivalLane="D9_1" arrivalPos="248.50" arrivalSpeed="13.12" duration="00:03:50" routeLength="2476.37" waitingTime="00:00:00" waitingCount="0" stopTime="00:00:00" timeLoss="00:00:430.89" rerouteNo="1" devices="tripinfo_carflow20.4 routing_carflow20.4" vType="car2" speedFactor="0.96" vaporized=""/>
    <tripinfo id="carflow39.1" depart="00:00:41" departLane="D24_0" departPos="5.10" departSpeed="0.00" departDelay="00:00:070.67" arrival="00:06:17" arrivalLane="D17_2" arrivalPos="486.40" arrivalSpeed="14.07" duration="00:05:36" routeLength="1958.50" waitingTime="00:02:09" waitingCount="6" stopTime="00:00:00" timeLoss="00:03:150.76" rerouteNo="1" devices="tripinfo_carflow39.1 routing_carflow39.1" vType="car4" speedFactor="1.02" vaporized=""/>
    <tripinfo id="carflow50.1" depart="00:00:37" departLane="D10_0" departPos="6.10" departSpeed="0.00" departDelay="00:00:030.67" arrival="00:06:17" arrivalLane="D9_0" arrivalPos="248.50" arrivalSpeed="9.03" duration="00:05:40" routeLength="966.70" waitingTime="00:03:56" waitingCount="3" stopTime="00:00:00" timeLoss="00:04:200.58" rerouteNo="1" devices="tripinfo_carflow50.1 routing_carflow50.1" vType="car2" speedFactor="0.87" vaporized=""/>
    <tripinfo id="carflow20.5" depart="00:03:00" departLane="D8_0" departPos="6.10" departSpeed="0.00" departDelay="00:00:130.34" arrival="00:06:17" arrivalLane="D9_2" arrivalPos="248.50" arrivalSpeed="13.89" duration="00:03:17" routeLength="2476.37" waitingTime="00:00:00" waitingCount="0" stopTime="00:00:00" timeLoss="00:00:370.92" rerouteNo="1" devices="tripinfo_carflow20.5 routing_carflow20.5" vType="car2" speedFactor="1.13" vaporized=""/>
    <tripinfo id="carflow39.0" depart="00:00:06" departLane="D24_0" departPos="5.10" departSpeed="0.00" departDelay="00:00:06" arrival="00:06:19" arrivalLane="D17_0" arrivalPos="486.40" arrivalSpeed="10.88" duration="00:06:13" routeLength="1958.50" waitingTime="00:02:40" waitingCount="4" stopTime="00:00:00" timeLoss="00:03:310.18" rerouteNo="1" devices="tripinfo_carflow39.0 routing_carflow39.0" vType="car4" speedFactor="0.88" vaporized=""/>
    <tripinfo id="carflow20.3" depart="00:01:53" departLane="D8_0" departPos="6.10" departSpeed="0.00" departDelay="00:00:13" arrival="00:06:24" arrivalLane="D9_0" arrivalPos="248.50" arrivalSpeed="9.12" duration="00:04:31" routeLength="2476.37" waitingTime="00:00:00" waitingCount="0" stopTime="00:00:00" timeLoss="00:00:460.44" rerouteNo="1" devices="tripinfo_carflow20.3 routing_carflow20.3" vType="car2" speedFactor="0.80" vaporized=""/>
    <tripinfo id="carflow22.1" depart="00:00:37" departLane="D18_0" departPos="4.10" departSpeed="0.00" departDelay="00:00:030.67" arrival="00:06:30" arrivalLane="D13_0" arrivalPos="500.00" arrivalSpeed="11.37" duration="00:05:53" routeLength="2477.83" waitingTime="00:02:26" waitingCount="1" stopTime="00:00:00" timeLoss="00:03:020.5" rerouteNo="1" devices="tripinfo_carflow22.1 routing_carflow22.1" vType="car3" speedFactor="1.05" vaporized=""/>
    <tripinfo id="carflow51.18" depart="00:05:05" departLane="D12_0" departPos="4.10" departSpeed="0.00" departDelay="00:00:05" arrival="00:06:30" arrivalLane="D11_1" arrivalPos="486.40" arrivalSpeed="13.53" duration="00:01:25" routeLength="973.38" waitingTime="00:00:00" waitingCount="0" stopTime="00:00:00" timeLoss="00:00:220.49" rerouteNo="0" devices="tripinfo_carflow51.18 routing_carflow51.18" vType="car3" speedFactor="1.14" vaporized=""/>
    <tripinfo id="carflow22.3" depart="00:01:43" departLane="D18_0" departPos="4.10" departSpeed="0.00" departDelay="00:00:03" arrival="00:06:32" arrivalLane="D13_1" arrivalPos="500.00" arrivalSpeed="12.60" duration="00:04:49" routeLength="2477.83" waitingTime="00:01:26" waitingCount="1" stopTime="00:00:00" timeLoss="00:02:030.97" rerouteNo="1" devices="tripinfo_carflow22.3 routing_carflow22.3" vType="car3" speedFactor="1.09" vaporized=""/>
    <tripinfo id="carflow51.17" depart="00:05:00" departLane="D12_0" departPos="4.10" departSpeed="0.00" departDelay="00:00:00" arrival="00:06:33" arrivalLane="D11_0" arrivalPos="486.40" arrivalSpeed="9.92" duration="00:01:33" routeLength="973.38" waitingTime="00:00:00" waitingCount="0" stopTime="00:00:00" timeLoss="00:00:170.83" rerouteNo="0" devices="tripinfo_carflow51.17 routing_carflow51.17" vType="car3" speedFactor="0.95" vaporized=""/>
    <tripinfo id="carflow22.2" depart="00:01:10" departLane="D18_0" departPos="4.10" departSpeed="0.00" departDelay="00:00:030.33" arrival="00:06:38" arrivalLane="D13_0" arrivalPos="500.00" arrivalSpeed="12.66" duration="00:05:28" routeLength="2477.83" waitingTime="00:01:55" waitingCount="1" stopTime="00:00:00" timeLoss="00:02:310.88" rerouteNo="1" devices="tripinfo_carflow22.2 routing_carflow22.2" vType="car3" speedFactor="1.02" vaporized=""/>
    <tripinfo id="carflow11.2" depart="00:00:48" departLane="D4_0" departPos="4.10" departSpeed="0.00" departDelay="00:00:140.67" arrival="00:06:46" arrivalLane="D11_0" arrivalPos="486.40" arrivalSpeed="14.29" duration="00:05:58" routeLength="2478.37" waitingTime="00:02:25" waitingCount="5" stopTime="00:00:00" timeLoss="00:03:130.38" rerouteNo="1" devices="tripinfo_carflow11.2 routing_carflow11.2" vType="car3" speedFactor="1.09" vaporized=""/>
    <tripinfo id="carflow11.4" depart="00:01:24" departLane="D4_0" departPos="4.10" departSpeed="0.00" departDelay="00:00:170.33" arrival="00:06:47" arrivalLane="D11_1" arrivalPos="486.40" arrivalSpeed="15.38" duration="00:05:23" routeLength="2478.37" waitingTime="00:01:59" waitingCount="3" stopTime="00:00:00" timeLoss="00:02:510.52" rerouteNo="1" devices="tripinfo_carflow11.4 routing_carflow11.4" vType="car3" speedFactor="1.19" vaporized=""/>
    <tripinfo id="carflow14.2" depart="00:01:17" departLane="D6_0" departPos="5.10" departSpeed="0.00" departDelay="00:00:100.33" arrival="00:06:47" arrivalLane="D7_0" arrivalPos="500.00" arrivalSpeed="13.76" duration="00:05:30" routeLength="3959.30" waitingTime="00:00:00" waitingCount="0" stopTime="00:00:00" timeLoss="00:00:460.18" rerouteNo="1" devices="tripinfo_carflow14.2 routing_carflow14.2" vType="car4" speedFactor="1.01" vaporized=""/>
    <tripinfo id="carflow20.6" depart="00:03:30" departLane="D8_0" departPos="6.10" departSpeed="0.00" departDelay="00:00:10" arrival="00:06:49" arrivalLane="D9_0" arrivalPos="248.50" arrivalSpeed="12.24" duration="00:03:19" routeLength="2476.37" waitingTime="00:00:00" waitingCount="0" stopTime="00:00:00" timeLoss="00:00:310.46" rerouteNo="1" devices="tripinfo_carflow20.6 routing_carflow20.6" vType="car2" speedFactor="1.07" vaporized=""/>
    <tripinfo id="carflow14.1" depart="00:00:44" departLane="D6_0" departPos="5.10" departSpeed="0.00" departDelay="00:00:100.67" arrival="00:06:51" arrivalLane="D7_0" arrivalPos="500.00" arrivalSpeed="11.26" duration="00:06:07" routeLength="3959.30" waitingTime="00:00:00" waitingCount="0" stopTime="00:00:00" timeLoss="00:00:570.45" rerouteNo="1" devices="tripinfo_carflow14.1 routing_carflow14.1" vType="car4" speedFactor="0.93" vaporized=""/>
    <tripinfo id="carflow22.4" depart="00:02:16" departLane="D18_0" departPos="4.10" departSpeed="0.00" departDelay="00:00:020.67" arrival="00:06:51" arrivalLane="D13_0" arrivalPos="500.00" arrivalSpeed="11.18" duration="00:04:35" routeLength="2477.83" waitingTime="00:00:47" waitingCount="1" stopTime="00:00:00" timeLoss="00:01:330.84" rerouteNo="1" devices="tripinfo_carflow22.4 routing_carflow22.4" vType="car3" speedFactor="0.99" vaporized=""/>
    <tripinfo id="carflow22.6" depart="00:03:23" departLane="D18_0" departPos="4.10" departSpeed="0.00" departDelay="00:00:03" arrival="00:06:55" arrivalLane="D13_0" arrivalPos="500.00" arrivalSpeed="10.57" duration="00:03:32" routeLength="2477.83" waitingTime="00:00:00" waitingCount="0" stopTime="00:00:00" timeLoss="00:00:330.3" rerouteNo="1" devices="tripinfo_carflow22.6 routing_carflow22.6" vType="car3" speedFactor="1.00" vaporized=""/>
    <tripinfo id="carflow14.3" depart="00:01:51" departLane="D6_0" departPos="5.10" departSpeed="0.00" departDelay="00:00:11" arrival="00:07:00" arrivalLane="D7_0" arrivalPos="500.00" arrivalSpeed="14.44" duration="00:05:09" routeLength="3959.30" waitingTime="00:00:00" waitingCount="0" stopTime="00:00:00" timeLoss="00:00:500.74" rerouteNo="1" devices="tripinfo_carflow14.3 routing_carflow14.3" vType="car4" speedFactor="1.11" vaporized=""/>
    <tripinfo id="carflow11.3" depart="00:01:07" departLane="D4_0" departPos="4.10" departSpeed="0.00" departDelay="00:00:000.33" arrival="00:07:03" arrivalLane="D11_0" arrivalPos="486.40" arrivalSpeed="13.21" duration="00:05:56" routeLength="2478.37" waitingTime="00:01:51" waitingCount="5" stopTime="00:00:00" timeLoss="00:02:500.31" rerouteNo="1" devices="tripinfo_carflow11.3 routing_carflow11.3" vType="car3" speedFactor="0.97" vaporized=""/>
    <tripinfo id="carflow22.5" depart="00:02:50" departLane="D18_0" departPos="4.10" departSpeed="0.00" departDelay="00:00:030.34" arrival="00:07:03" arrivalLane="D13_0" arrivalPos="500.00" arrivalSpeed="11.99" duration="00:04:13" routeLength="2477.83" waitingTime="00:00:13" waitingCount="2" stopTime="00:00:00" timeLoss="00:01:000.86" rerouteNo="1" devices="tripinfo_carflow22.5 routing_carflow22.5" vType="car3" speedFactor="0.94" vaporized=""/>
    <tripinfo id="carflow11.5" depart="00:01:40" departLane="D4_0" departPos="4.10" departSpeed="0.00" departDelay="00:00:00" arrival="00:07:04" arrivalLane="D11_1" arrivalPos="486.40" arrivalSpeed="12.35" duration="00:05:24" routeLength="2478.37" waitingTime="00:01:15" waitingCount="4" stopTime="00:00:00" timeLoss="00:02:250.7" rerouteNo="1" devices="tripinfo_carflow11.5 routing_carflow11.5" vType="car3" speedFactor="1.00" vaporized=""/>
    <tripinfo id="carflow11.8" depart="00:02:29" departLane="D4_0" departPos="4.10" departSpeed="0.00" departDelay="00:00:150.67" arrival="00:07:07" arrivalLane="D11_1" arrivalPos="486.40" arrivalSpeed="14.66" duration="00:04:38" routeLength="2478.37" waitingTime="00:00:39" waitingCount="4" stopTime="00:00:00" timeLoss="00:02:120.26" rerouteNo="1" devices="tripinfo_carflow11.8 routing_carflow11.8" vType="car3" speedFactor="1.24" vaporized=""/>
    <tripinfo id="carflow51.19" depart="00:05:35" departLane="D12_0" departPos="4.10" departSpeed="0.00" departDelay="00:00:010.67" arrival="00:07:09" arrivalLane="D11_1" arrivalPos="486.40" arrivalSpeed="11.19" duration="00:01:34" routeLength="973.38" waitingTime="00:00:07" waitingCount="1" stopTime="00:00:00" timeLoss="00:00:250.99" rerouteNo="0" devices="tripinfo_carflow51.19 routing_carflow51.19" vType="car3" speedFactor="1.05" vaporized=""/>
    <tripinfo id="carflow17.0" depart="00:00:00" departLane="D8_0" departPos="4.10" departSpeed="0.00" departDelay="00:00:00" arrival="00:07:10" arrivalLane="D1_0" arrivalPos="500.00" arrivalSpeed="15.21" duration="00:07:10" routeLength="3969.44" waitingTime="00:02:21" waitingCount="1" stopTime="00:00:00" timeLoss="00:02:570.85" rerouteNo="1" devices="tripinfo_carflow17.0 routing_carflow17.0" vType="car3" speedFactor="1.14" vaporized=""/>
    <tripinfo id="carflow11.6" depart="00:01:56" departLane="D4_0" departPos="4.10" departSpeed="0.00" departDelay="00:00:16" arrival="00:07:14" arrivalLane="D11_0" arrivalPos="486.40" arrivalSpeed="10.63" duration="00:05:18" routeLength="2478.37" waitingTime="00:00:45" waitingCount="5" stopTime="00:00:00" timeLoss="00:01:530.45" rerouteNo="1" devices="tripinfo_carflow11.6 routing_carflow11.6" vType="car3" speedFactor="0.88" vaporized=""/>
    <tripinfo id="carflow11.10" depart="00:03:00" departLane="D4_0" departPos="4.10" departSpeed="0.00" departDelay="00:00:130.34" arrival="00:07:17" arrivalLane="D11_1" arrivalPos="486.40" arrivalSpeed="14.16" duration="00:04:17" routeLength="2478.37" waitingTime="00:00:29" waitingCount="1" stopTime="00:00:00" timeLoss="00:01:320.14" rerouteNo="1" devices="tripinfo_carflow11.10 routing_carflow11.10" vType="car3" speedFactor="1.09" vaporized=""/>
    <tripinfo id="carflow37.2" depart="00:01:09" departLane="D24_0" departPos="4.10" departSpeed="0.00" departDelay="00:00:020.33" arrival="00:07:21" arrivalLane="D13_0" arrivalPos="500.00" arrivalSpeed="14.99" duration="00:06:12" routeLength="3440.33" waitingTime="00:01:36" waitingCount="4" stopTime="00:00:00" timeLoss="00:02:420.9" rerouteNo="1" devices="tripinfo_carflow37.2 routing_carflow37.2" vType="car3" speedFactor="1.20" vaporized=""/>
    <tripinfo id="carflow11.11" depart="00:03:20" departLane="D4_0" departPos="4.10" departSpeed="0.00" departDelay="00:00:00" arrival="00:07:22" arrivalLane="D11_1" arrivalPos="486.40" arrivalSpeed="14.70" duration="00:04:02" routeLength="2478.37" waitingTime="00:00:26" waitingCount="2" stopTime="00:00:00" timeLoss="00:01:190.54" rerouteNo="1" devices="tripinfo_carflow11.11 routing_carflow11.11" vType="car3" speedFactor="1.11" vaporized=""/>
    <tripinfo id="carflow11.7" depart="00:02:14" departLane="D4_0" departPos="4.10" departSpeed="0.00" departDelay="00:00:000.67" arrival="00:07:24" arrivalLane="D11_0" arrivalPos="486.40" arrivalSpeed="9.89" duration="00:05:10" routeLength="2478.37" waitingTime="00:00:33" waitingCount="3" stopTime="00:00:00" timeLoss="00:01:430.96" rerouteNo="1" devices="tripinfo_carflow11.7 routing_carflow11.7" vType="car3" speedFactor="0.87" vaporized=""/>
    <tripinfo id="carflow51.20" depart="00:05:39" departLane="D12_0" departPos="4.10" departSpeed="0.00" departDelay="00:00:050.67" arrival="00:07:26" arrivalLane="D11_1" arrivalPos="486.40" arrivalSpeed="10.24" duration="00:01:47" routeLength="973.38" waitingTime="00:00:07" waitingCount="1" stopTime="00:00:00" timeLoss="00:00:340.57" rerouteNo="0" devices="tripinfo_carflow51.20 routing_carflow51.20" vType="car3" speedFactor="0.98" vaporized=""/>