<?xml version="1.0" encoding="UTF-8"?>

<!-- generated on Sun Jan 31 19:32:56 2021 by Eclipse SUMO sumo Version 1.8.0
<configuration xmlns:xsi="http://www.w3.org/2001/XMLSchema-instance" xsi:noNamespaceSchemaLocation="http://sumo.dlr.de/xsd/sumoConfiguration.xsd">

    <input>
        <net-file value="./config/demo.net.xml"/>
        <route-files value="./config/demo.rou30000.xml"/>
        <additional-files value="./config/demo.detector.xml"/>
    </input>

    <output>
        <human-readable-time value="true"/>
        <summary-output value="./config/demo.summary.xml"/>
        <tripinfo-output value="./config/demo.tripinfo.xml"/>
        <statistic-output value="./config/demo.statistic.xml"/>
    </output>

    <processing>
        <scale value="1"/>
        <time-to-teleport value="140"/>
        <waiting-time-memory value="50"/>
    </processing>

    <report>
        <no-warnings value="true"/>
        <duration-log.disable value="true"/>
        <no-step-log value="true"/>
    </report>

    <traci_server>
        <remote-port value="8017"/>
    </traci_server>

    <random_number>
        <seed value="52258"/>
    </random_number>

    <gui_only>
        <gui-settings-file value="./config/demo.settings.xml"/>
    </gui_only>

</configuration>
-->

<tripinfos xmlns:xsi="http://www.w3.org/2001/XMLSchema-instance" xsi:noNamespaceSchemaLocation="http://sumo.dlr.de/xsd/tripinfo_file.xsd">
    <tripinfo id="carflow50.0" depart="00:00:03" departLane="D10_0" departPos="6.10" departSpeed="0.00" departDelay="00:00:03" arrival="00:02:20" arrivalLane="D9_0" arrivalPos="248.50" arrivalSpeed="12.89" duration="00:02:17" routeLength="971.38" waitingTime="00:00:40" waitingCount="1" stopTime="00:00:00" timeLoss="00:01:030.4" rerouteNo="1" devices="tripinfo_carflow50.0 routing_carflow50.0" vType="car2" speedFactor="0.96" vaporized=""/>
    <tripinfo id="carflow50.1" depart="00:00:38" departLane="D10_0" departPos="6.10" departSpeed="0.00" departDelay="00:00:040.67" arrival="00:02:20" arrivalLane="D9_1" arrivalPos="248.50" arrivalSpeed="15.03" duration="00:01:42" routeLength="971.38" waitingTime="00:00:09" waitingCount="2" stopTime="00:00:00" timeLoss="00:00:360.85" rerouteNo="1" devices="tripinfo_carflow50.1 routing_carflow50.1" vType="car2" speedFactor="1.10" vaporized=""/>
    <tripinfo id="carflow50.2" depart="00:01:10" departLane="D10_0" departPos="6.10" departSpeed="0.00" departDelay="00:00:030.33" arrival="00:02:36" arrivalLane="D9_0" arrivalPos="248.50" arrivalSpeed="13.24" duration="00:01:26" routeLength="971.38" waitingTime="00:00:00" waitingCount="0" stopTime="00:00:00" timeLoss="00:00:160.71" rerouteNo="1" devices="tripinfo_carflow50.2 routing_carflow50.2" vType="car2" speedFactor="1.04" vaporized=""/>
    <tripinfo id="carflow29.0" depart="00:00:06" departLane="D20_0" departPos="5.10" departSpeed="0.00" departDelay="00:00:06" arrival="00:02:43" arrivalLane="D17_0" arrivalPos="486.40" arrivalSpeed="15.65" duration="00:02:37" routeLength="1994.90" waitingTime="00:00:19" waitingCount="1" stopTime="00:00:00" timeLoss="00:00:410.70" rerouteNo="1" devices="tripinfo_carflow29.0 routing_carflow29.0" vType="car4" speedFactor="1.25" vaporized=""/>
    <tripinfo id="carflow51.0" depart="00:00:03" departLane="D12_0" departPos="4.10" departSpeed="0.00" departDelay="00:00:03" arrival="00:02:50" arrivalLane="D11_0" arrivalPos="486.40" arrivalSpeed="12.49" duration="00:02:47" routeLength="973.38" waitingTime="00:01:07" waitingCount="1" stopTime="00:00:00" timeLoss="00:01:330.22" rerouteNo="0" devices="tripinfo_carflow51.0 routing_carflow51.0" vType="car3" speedFactor="0.96" vaporized=""/>
    <tripinfo id="carflow41.0" depart="00:00:14" departLane="D24_0" departPos="5.10" departSpeed="0.00" departDelay="00:00:14" arrival="00:02:51" arrivalLane="D21_0" arrivalPos="486.40" arrivalSpeed="13.78" duration="00:02:37" routeLength="1994.90" waitingTime="00:00:00" waitingCount="0" stopTime="00:00:00" timeLoss="00:00:220.59" rerouteNo="1" devices="tripinfo_carflow41.0 routing_carflow41.0" vType="car4" speedFactor="1.08" vaporized=""/>
    <tripinfo id="carflow51.1" depart="00:00:37" departLane="D12_0" departPos="4.10" departSpeed="0.00" departDelay="00:00:030.67" arrival="00:02:54" arrivalLane="D11_0" arrivalPos="486.40" arrivalSpeed="12.99" duration="00:02:17" routeLength="973.38" waitingTime="00:00:40" waitingCount="3" stopTime="00:00:00" timeLoss="00:01:060.24" rerouteNo="0" devices="tripinfo_carflow51.1 routing_carflow51.1" vType="car3" speedFactor="1.01" vaporized=""/>
    <tripinfo id="carflow38.0" depart="00:00:03" departLane="D24_0" departPos="6.10" departSpeed="0.00" departDelay="00:00:03" arrival="00:02:58" arrivalLane="D15_0" arrivalPos="500.00" arrivalSpeed="14.88" duration="00:02:55" routeLength="2493.94" waitingTime="00:00:00" waitingCount="0" stopTime="00:00:00" timeLoss="00:00:260.26" rerouteNo="1" devices="tripinfo_carflow38.0 routing_carflow38.0" vType="car2" speedFactor="1.21" vaporized=""/>
    <tripinfo id="carflow51.2" depart="00:01:09" departLane="D12_0" departPos="4.10" departSpeed="0.00" departDelay="00:00:020.33" arrival="00:02:58" arrivalLane="D11_0" arrivalPos="486.40" arrivalSpeed="11.24" duration="00:01:49" routeLength="973.38" waitingTime="00:00:11" waitingCount="1" stopTime="00:00:00" timeLoss="00:00:360.90" rerouteNo="0" devices="tripinfo_carflow51.2 routing_carflow51.2" vType="car3" speedFactor="0.98" vaporized=""/>
    <tripinfo id="carflow36.0" depart="00:00:12" departLane="D22_0" departPos="5.10" departSpeed="0.00" departDelay="00:00:12" arrival="00:03:08" arrivalLane="D23_0" arrivalPos="486.40" arrivalSpeed="13.02" duration="00:02:56" routeLength="1994.90" waitingTime="00:00:07" waitingCount="2" stopTime="00:00:00" timeLoss="00:00:430.5" rerouteNo="1" devices="tripinfo_carflow36.0 routing_carflow36.0" vType="car4" speedFactor="1.08" vaporized=""/>
    <tripinfo id="carflow51.3" depart="00:01:43" departLane="D12_0" departPos="4.10" departSpeed="0.00" departDelay="00:00:03" arrival="00:03:10" arrivalLane="D11_0" arrivalPos="486.40" arrivalSpeed="13.31" duration="00:01:27" routeLength="973.38" waitingTime="00:00:00" waitingCount="0" stopTime="00:00:00" timeLoss="00:00:210.39" rerouteNo="0" devices="tripinfo_carflow51.3 routing_carflow51.3" vType="car3" speedFactor="1.09" vaporized=""/>
    <tripinfo id="carflow35.0" depart="00:00:10" departLane="D22_0" departPos="6.10" departSpeed="0.00" departDelay="00:00:10" arrival="00:03:13" arrivalLane="D19_0" arrivalPos="486.40" arrivalSpeed="14.39" duration="00:03:03" routeLength="1991.15" waitingTime="00:00:10" waitingCount="1" stopTime="00:00:00" timeLoss="00:00:480.65" rerouteNo="1" devices="tripinfo_carflow35.0 routing_carflow35.0" vType="car2" speedFactor="1.08" vaporized=""/>
    <tripinfo id="carflow11.0" depart="00:00:11" departLane="D4_0" departPos="4.10" departSpeed="0.00" departDelay="00:00:11" arrival="00:03:18" arrivalLane="D11_0" arrivalPos="486.40" arrivalSpeed="14.04" duration="00:03:07" routeLength="2478.37" waitingTime="00:00:00" waitingCount="0" stopTime="00:00:00" timeLoss="00:00:350.99" rerouteNo="1" devices="tripinfo_carflow11.0 routing_carflow11.0" vType="car3" speedFactor="1.19" vaporized=""/>
    <tripinfo id="carflow22.1" depart="00:00:34" departLane="D18_0" departPos="4.10" departSpeed="0.00" departDelay="00:00:000.67" arrival="00:03:22" arrivalLane="D13_0" arrivalPos="500.00" arrivalSpeed="16.09" duration="00:02:48" routeLength="2477.83" waitingTime="00:00:00" waitingCount="0" stopTime="00:00:00" timeLoss="00:00:220.38" rerouteNo="1" devices="tripinfo_carflow22.1 routing_carflow22.1" vType="car3" speedFactor="1.23" vaporized=""/>
    <tripinfo id="carflow30.0" depart="00:00:10" departLane="D20_0" departPos="6.10" departSpeed="0.00" departDelay="00:00:10" arrival="00:03:26" arrivalLane="D21_0" arrivalPos="486.40" arrivalSpeed="11.82" duration="00:03:16" routeLength="1957.56" waitingTime="00:00:07" waitingCount="1" stopTime="00:00:00" timeLoss="00:00:460.67" rerouteNo="1" devices="tripinfo_carflow30.0 routing_carflow30.0" vType="car2" speedFactor="0.96" vaporized=""/>
    <tripinfo id="carflow39.0" depart="00:00:06" departLane="D24_0" departPos="5.10" departSpeed="0.00" departDelay="00:00:06" arrival="00:03:32" arrivalLane="D17_0" arrivalPos="486.40" arrivalSpeed="13.26" duration="00:03:26" routeLength="1958.50" waitingTime="00:00:22" waitingCount="1" stopTime="00:00:00" timeLoss="00:01:020.39" rerouteNo="1" devices="tripinfo_carflow39.0 routing_carflow39.0" vType="car4" speedFactor="0.99" vaporized=""/>
    <tripinfo id="carflow38.1" depart="00:00:38" departLane="D24_0" departPos="6.10" departSpeed="0.00" departDelay="00:00:040.67" arrival="00:03:33" arrivalLane="D15_0" arrivalPos="500.00" arrivalSpeed="16.93" duration="00:02:55" routeLength="2493.94" waitingTime="00:00:00" waitingCount="0" stopTime="00:00:00" timeLoss="00:00:280.93" rerouteNo="1" devices="tripinfo_carflow38.1 routing_carflow38.1" vType="car2" speedFactor="1.23" vaporized=""/>
    <tripinfo id="carflow39.1" depart="00:00:41" departLane="D24_0" departPos="5.10" departSpeed="0.00" departDelay="00:00:070.67" arrival="00:03:39" arrivalLane="D17_0" arrivalPos="486.40" arrivalSpeed="12.42" duration="00:02:58" routeLength="1958.50" waitingTime="00:00:00" waitingCount="0" stopTime="00:00:00" timeLoss="00:00:310.85" rerouteNo="1" devices="tripinfo_carflow39.1 routing_carflow39.1" vType="car4" speedFactor="0.98" vaporized=""/>
    <tripinfo id="carflow26.0" depart="00:00:12" departLane="D18_0" departPos="5.10" departSpeed="0.00" departDelay="00:00:12" arrival="00:03:42" arrivalLane="D23_0" arrivalPos="486.40" arrivalSpeed="9.58" duration="00:03:30" routeLength="1992.09" waitingTime="00:00:07" waitingCount="1" stopTime="00:00:00" timeLoss="00:00:480.98" rerouteNo="1" devices="tripinfo_carflow26.0 routing_carflow26.0" vType="car4" speedFactor="0.90" vaporized=""/>
    <tripinfo id="carflow22.0" depart="00:00:00" departLane="D18_0" departPos="4.10" departSpeed="0.00" departDelay="00:00:00" arrival="00:03:44" arrivalLane="D13_0" arrivalPos="500.00" arrivalSpeed="12.60" duration="00:03:44" routeLength="2477.83" waitingTime="00:00:00" waitingCount="0" stopTime="00:00:00" timeLoss="00:00:320.39" rerouteNo="1" devices="tripinfo_carflow22.0 routing_carflow22.0" vType="car3" speedFactor="0.94" vaporized=""/>
    <tripinfo id="carflow26.1" depart="00:00:45" departLane="D18_0" departPos="5.10" departSpeed="0.00" departDelay="00:00:110.67" arrival="00:03:44" arrivalLane="D23_1" arrivalPos="486.40" arrivalSpeed="13.80" duration="00:02:59" routeLength="1992.09" waitingTime="00:00:00" waitingCount="0" stopTime="00:00:00" timeLoss="00:00:350.1" rerouteNo="1" devices="tripinfo_carflow26.1 routing_carflow26.1" vType="car4" speedFactor="1.01" vaporized=""/>
    <tripinfo id="carflow24.1" depart="00:00:40" departLane="D18_0" departPos="5.10" departSpeed="0.00" departDelay="00:00:060.67" arrival="00:03:46" arrivalLane="D19_0" arrivalPos="486.40" arrivalSpeed="14.48" duration="00:03:06" routeLength="1994.90" waitingTime="00:00:27" waitingCount="1" stopTime="00:00:00" timeLoss="00:00:560.83" rerouteNo="1" devices="tripinfo_carflow24.1 routing_carflow24.1" vType="car4" speedFactor="1.12" vaporized=""/>
    <tripinfo id="carflow27.0" depart="00:00:00" departLane="D20_0" departPos="4.10" departSpeed="0.00" departDelay="00:00:00" arrival="00:03:48" arrivalLane="D13_0" arrivalPos="500.00" arrivalSpeed="13.11" duration="00:03:48" routeLength="2495.94" waitingTime="00:00:19" waitingCount="2" stopTime="00:00:00" timeLoss="00:00:540.84" rerouteNo="1" devices="tripinfo_carflow27.0 routing_carflow27.0" vType="car3" speedFactor="1.04" vaporized=""/>
    <tripinfo id="carflow24.0" depart="00:00:06" departLane="D18_0" departPos="5.10" departSpeed="0.00" departDelay="00:00:06" arrival="00:03:50" arrivalLane="D19_0" arrivalPos="486.40" arrivalSpeed="11.39" duration="00:03:44" routeLength="1994.90" waitingTime="00:00:52" waitingCount="2" stopTime="00:00:00" timeLoss="00:01:250.30" rerouteNo="1" devices="tripinfo_carflow24.0 routing_carflow24.0" vType="car4" speedFactor="1.04" vaporized=""/>
    <tripinfo id="carflow33.0" depart="00:00:03" departLane="D22_0" departPos="6.10" departSpeed="0.00" departDelay="00:00:03" arrival="00:03:56" arrivalLane="D15_0" arrivalPos="500.00" arrivalSpeed="11.38" duration="00:03:53" routeLength="2475.83" waitingTime="00:00:12" waitingCount="2" stopTime="00:00:00" timeLoss="00:00:510.65" rerouteNo="1" devices="tripinfo_carflow33.0 routing_carflow33.0" vType="car2" speedFactor="0.99" vaporized=""/>
    <tripinfo id="carflow29.1" depart="00:00:41" departLane="D20_0" departPos="5.10" departSpeed="0.00" departDelay="00:00:070.67" arrival="00:03:56" arrivalLane="D17_0" arrivalPos="486.40" arrivalSpeed="11.60" duration="00:03:15" routeLength="1994.90" waitingTime="00:00:00" waitingCount="0" stopTime="00:00:00" timeLoss="00:00:300.12" rerouteNo="1" devices="tripinfo_carflow29.1 routing_carflow29.1" vType="car4" speedFactor="0.88" vaporized=""/>
    <tripinfo id="carflow24.2" depart="00:01:13" departLane="D18_0" departPos="5.10" departSpeed="0.00" departDelay="00:00:060.33" arrival="00:03:56" arrivalLane="D19_0" arrivalPos="486.40" arrivalSpeed="12.37" duration="00:02:43" routeLength="1994.90" waitingTime="00:00:00" waitingCount="0" stopTime="00:00:00" timeLoss="00:00:210.86" rerouteNo="1" devices="tripinfo_carflow24.2 routing_carflow24.2" vType="car4" speedFactor="1.02" vaporized=""/>
    <tripinfo id="carflow5.0" depart="00:00:11" departLane="D2_0" departPos="4.10" departSpeed="0.00" departDelay="00:00:11" arrival="00:03:57" arrivalLane="D9_0" arrivalPos="248.50" arrivalSpeed="12.55" duration="00:03:46" routeLength="2496.48" waitingTime="00:00:26" waitingCount="2" stopTime="00:00:00" timeLoss="00:01:020.21" rerouteNo="1" devices="tripinfo_carflow5.0 routing_carflow5.0" vType="car3" speedFactor="1.11" vaporized=""/>
    <tripinfo id="carflow29.2" depart="00:01:12" departLane="D20_0" departPos="5.10" departSpeed="0.00" departDelay="00:00:050.33" arrival="00:03:59" arrivalLane="D17_0" arrivalPos="486.40" arrivalSpeed="11.32" duration="00:02:47" routeLength="1994.90" waitingTime="00:00:00" waitingCount="0" stopTime="00:00:00" timeLoss="00:00:250.41" rerouteNo="1" devices="tripinfo_carflow29.2 routing_carflow29.2" vType="car4" speedFactor="1.02" vaporized=""/>
    <tripinfo id="carflow39.2" depart="00:01:13" departLane="D24_0" departPos="5.10" departSpeed="0.00" departDelay="00:00:060.33" arrival="00:04:02" arrivalLane="D17_0" arrivalPos="486.40" arrivalSpeed="14.09" duration="00:02:49" routeLength="1958.50" waitingTime="00:00:01" waitingCount="1" stopTime="00:00:00" timeLoss="00:00:460.80" rerouteNo="1" devices="tripinfo_carflow39.2 routing_carflow39.2" vType="car4" speedFactor="1.17" vaporized=""/>
    <tripinfo id="carflow27.1" depart="00:00:34" departLane="D20_0" departPos="4.10" departSpeed="0.00" departDelay="00:00:000.67" arrival="00:04:12" arrivalLane="D13_0" arrivalPos="500.00" arrivalSpeed="13.26" duration="00:03:38" routeLength="2495.94" waitingTime="00:00:00" waitingCount="0" stopTime="00:00:00" timeLoss="00:00:340.1" rerouteNo="1" devices="tripinfo_carflow27.1 routing_carflow27.1" vType="car3" speedFactor="0.98" vaporized=""/>
    <tripinfo id="carflow30.1" depart="00:00:44" departLane="D20_0" departPos="6.10" departSpeed="0.00" departDelay="00:00:100.67" arrival="00:04:14" arrivalLane="D21_0" arrivalPos="486.40" arrivalSpeed="12.04" duration="00:03:30" routeLength="1957.56" waitingTime="00:00:06" waitingCount="2" stopTime="00:00:00" timeLoss="00:00:460.76" rerouteNo="1" devices="tripinfo_carflow30.1 routing_carflow30.1" vType="car2" speedFactor="0.87" vaporized=""/>
    <tripinfo id="carflow22.2" depart="00:01:07" departLane="D18_0" departPos="4.10" departSpeed="0.00" departDelay="00:00:000.33" arrival="00:04:14" arrivalLane="D13_1" arrivalPos="500.00" arrivalSpeed="13.60" duration="00:03:07" routeLength="2477.83" waitingTime="00:00:00" waitingCount="0" stopTime="00:00:00" timeLoss="00:00:260.23" rerouteNo="1" devices="tripinfo_carflow22.2 routing_carflow22.2" vType="car3" speedFactor="1.12" vaporized=""/>
    <tripinfo id="carflow30.2" depart="00:01:16" departLane="D20_0" departPos="6.10" departSpeed="0.00" departDelay="00:00:090.33" arrival="00:04:21" arrivalLane="D21_0" arrivalPos="486.40" arrivalSpeed="10.89" duration="00:03:05" routeLength="1957.56" waitingTime="00:00:04" waitingCount="1" stopTime="00:00:00" timeLoss="00:00:380.67" rerouteNo="1" devices="tripinfo_carflow30.2 routing_carflow30.2" vType="car2" speedFactor="0.97" vaporized=""/>
    <tripinfo id="carflow36.1" depart="00:00:46" departLane="D22_0" departPos="5.10" departSpeed="0.00" departDelay="00:00:120.67" arrival="00:04:22" arrivalLane="D23_0" arrivalPos="486.40" arrivalSpeed="10.62" duration="00:03:36" routeLength="1994.90" waitingTime="00:00:26" waitingCount="2" stopTime="00:00:00" timeLoss="00:01:040.92" rerouteNo="1" devices="tripinfo_carflow36.1 routing_carflow36.1" vType="car4" speedFactor="0.96" vaporized=""/>
    <tripinfo id="carflow36.3" depart="00:01:54" departLane="D22_0" departPos="5.10" departSpeed="0.00" departDelay="00:00:14" arrival="00:04:31" arrivalLane="D23_0" arrivalPos="486.40" arrivalSpeed="14.52" duration="00:02:37" routeLength="1994.90" waitingTime="00:00:00" waitingCount="0" stopTime="00:00:00" timeLoss="00:00:220.51" rerouteNo="1" devices="tripinfo_carflow36.3 routing_carflow36.3" vType="car4" speedFactor="1.07" vaporized=""/>
    <tripinfo id="carflow34.0" depart="00:00:06" departLane="D22_0" departPos="5.10" departSpeed="0.00" departDelay="00:00:06" arrival="00:04:35" arrivalLane="D17_0" arrivalPos="486.40" arrivalSpeed="13.28" duration="00:04:29" routeLength="2976.61" waitingTime="00:00:12" waitingCount="1" stopTime="00:00:00" timeLoss="00:00:550.64" rerouteNo="1" devices="tripinfo_carflow34.0 routing_carflow34.0" vType="car4" speedFactor="1.01" vaporized=""/>
    <tripinfo id="carflow33.2" depart="00:01:11" departLane="D22_0" departPos="6.10" departSpeed="0.00" departDelay="00:00:040.33" arrival="00:04:36" arrivalLane="D15_0" arrivalPos="500.00" arrivalSpeed="12.33" duration="00:03:25" routeLength="2475.83" waitingTime="00:00:05" waitingCount="1" stopTime="00:00:00" timeLoss="00:00:450.72" rerouteNo="1" devices="tripinfo_carflow33.2 routing_carflow33.2" vType="car2" speedFactor="1.12" vaporized=""/>
    <tripinfo id="carflow11.1" depart="00:00:42" departLane="D4_0" departPos="4.10" departSpeed="0.00" departDelay="00:00:080.67" arrival="00:04:37" arrivalLane="D11_0" arrivalPos="486.40" arrivalSpeed="10.89" duration="00:03:55" routeLength="2478.37" waitingTime="00:00:00" waitingCount="0" stopTime="00:00:00" timeLoss="00:00:350.67" rerouteNo="1" devices="tripinfo_carflow11.1 routing_carflow11.1" vType="car3" speedFactor="0.90" vaporized=""/>
    <tripinfo id="carflow35.1" depart="00:00:43" departLane="D22_0" departPos="6.10" departSpeed="0.00" departDelay="00:00:090.67" arrival="00:04:40" arrivalLane="D19_0" arrivalPos="486.40" arrivalSpeed="9.94" duration="00:03:57" routeLength="1991.15" waitingTime="00:00:37" waitingCount="4" stopTime="00:00:00" timeLoss="00:01:220.41" rerouteNo="1" devices="tripinfo_carflow35.1 routing_carflow35.1" vType="car2" speedFactor="0.94" vaporized=""/>
    <tripinfo id="carflow35.3" depart="00:01:50" departLane="D22_0" departPos="6.10" departSpeed="0.00" departDelay="00:00:10" arrival="00:04:41" arrivalLane="D19_1" arrivalPos="486.40" arrivalSpeed="11.47" duration="00:02:51" routeLength="1991.15" waitingTime="00:00:00" waitingCount="0" stopTime="00:00:00" timeLoss="00:00:330.43" rerouteNo="1" devices="tripinfo_carflow35.3 routing_carflow35.3" vType="car2" speedFactor="1.05" vaporized=""/>
    <tripinfo id="carflow35.2" depart="00:01:19" departLane="D22_0" departPos="6.10" departSpeed="0.00" departDelay="00:00:120.33" arrival="00:04:43" arrivalLane="D19_0" arrivalPos="486.40" arrivalSpeed="11.47" duration="00:03:24" routeLength="1991.15" waitingTime="00:00:01" waitingCount="1" stopTime="00:00:00" timeLoss="00:00:490.88" rerouteNo="1" devices="tripinfo_carflow35.2 routing_carflow35.2" vType="car2" speedFactor="0.94" vaporized=""/>
    <tripinfo id="carflow40.0" depart="00:00:10" departLane="D24_0" departPos="6.10" departSpeed="0.00" departDelay="00:00:10" arrival="00:04:44" arrivalLane="D19_1" arrivalPos="486.40" arrivalSpeed="14.93" duration="00:04:34" routeLength="2975.61" waitingTime="00:00:21" waitingCount="1" stopTime="00:00:00" timeLoss="00:01:200.69" rerouteNo="1" devices="tripinfo_carflow40.0 routing_carflow40.0" vType="car2" speedFactor="1.12" vaporized=""/>
    <tripinfo id="carflow33.1" depart="00:00:39" departLane="D22_0" departPos="6.10" departSpeed="0.00" departDelay="00:00:050.67" arrival="00:04:44" arrivalLane="D15_0" arrivalPos="500.00" arrivalSpeed="8.65" duration="00:04:05" routeLength="2475.83" waitingTime="00:00:00" waitingCount="0" stopTime="00:00:00" timeLoss="00:00:390.11" rerouteNo="1" devices="tripinfo_carflow33.1 routing_carflow33.1" vType="car2" speedFactor="0.87" vaporized=""/>
    <tripinfo id="carflow36.2" depart="00:01:21" departLane="D22_0" departPos="5.10" departSpeed="0.00" departDelay="00:00:140.33" arrival="00:04:44" arrivalLane="D23_0" arrivalPos="486.40" arrivalSpeed="10.56" duration="00:03:23" routeLength="1994.90" waitingTime="00:00:00" waitingCount="0" stopTime="00:00:00" timeLoss="00:00:330.18" rerouteNo="1" devices="tripinfo_carflow36.2 routing_carflow36.2" vType="car4" speedFactor="0.85" vaporized=""/>
    <tripinfo id="carflow41.2" depart="00:01:21" departLane="D24_0" departPos="5.10" departSpeed="0.00" departDelay="00:00:140.33" arrival="00:04:44" arrivalLane="D21_0" arrivalPos="486.40" arrivalSpeed="14.56" duration="00:03:23" routeLength="1994.90" waitingTime="00:00:35" waitingCount="4" stopTime="00:00:00" timeLoss="00:01:180.56" rerouteNo="1" devices="tripinfo_carflow41.2 routing_carflow41.2" vType="car4" speedFactor="1.16" vaporized=""/>
    <tripinfo id="carflow27.2" depart="00:01:07" departLane="D20_0" departPos="4.10" departSpeed="0.00" departDelay="00:00:000.33" arrival="00:04:45" arrivalLane="D13_0" arrivalPos="500.00" arrivalSpeed="12.67" duration="00:03:38" routeLength="2495.94" waitingTime="00:00:02" waitingCount="1" stopTime="00:00:00" timeLoss="00:00:380.2" rerouteNo="1" devices="tripinfo_carflow27.2 routing_carflow27.2" vType="car3" speedFactor="1.01" vaporized=""/>
    <tripinfo id="carflow24.3" depart="00:01:48" departLane="D18_0" departPos="5.10" departSpeed="0.00" departDelay="00:00:08" arrival="00:04:46" arrivalLane="D19_0" arrivalPos="486.40" arrivalSpeed="12.30" duration="00:02:58" routeLength="1994.90" waitingTime="00:00:17" waitingCount="1" stopTime="00:00:00" timeLoss="00:00:470.70" rerouteNo="1" devices="tripinfo_carflow24.3 routing_carflow24.3" vType="car4" speedFactor="1.11" vaporized=""/>
    <tripinfo id="carflow20.1" depart="00:00:45" departLane="D8_0" departPos="6.10" departSpeed="0.00" departDelay="00:00:110.67" arrival="00:04:48" arrivalLane="D9_0" arrivalPos="248.50" arrivalSpeed="11.50" duration="00:04:03" routeLength="2476.37" waitingTime="00:00:16" waitingCount="3" stopTime="00:00:00" timeLoss="00:01:040.82" rerouteNo="1" devices="tripinfo_carflow20.1 routing_carflow20.1" vType="car2" speedFactor="1.01" vaporized=""/>
    <tripinfo id="carflow33.3" depart="00:01:43" departLane="D22_0" departPos="6.10" departSpeed="0.00" departDelay="00:00:03" arrival="00:04:53" arrivalLane="D15_0" arrivalPos="500.00" arrivalSpeed="13.18" duration="00:03:10" routeLength="2475.83" waitingTime="00:00:00" waitingCount="0" stopTime="00:00:00" timeLoss="00:00:360.50" rerouteNo="1" devices="tripinfo_carflow33.3 routing_carflow33.3" vType="car2" speedFactor="1.17" vaporized=""/>
    <tripinfo id="carflow20.0" depart="00:00:10" departLane="D8_0" departPos="6.10" departSpeed="0.00" departDelay="00:00:10" arrival="00:04:58" arrivalLane="D9_0" arrivalPos="248.50" arrivalSpeed="11.05" duration="00:04:48" routeLength="2476.37" waitingTime="00:00:28" waitingCount="2" stopTime="00:00:00" timeLoss="00:01:240.79" rerouteNo="1" devices="tripinfo_carflow20.0 routing_carflow20.0" vType="car2" speedFactor="0.88" vaporized=""/>
    <tripinfo id="carflow5.1" depart="00:00:43" departLane="D2_0" departPos="4.10" departSpeed="0.00" departDelay="00:00:090.67" arrival="00:04:58" arrivalLane="D9_1" arrivalPos="248.50" arrivalSpeed="11.61" duration="00:04:15" routeLength="2496.48" waitingTime="00:00:09" waitingCount="3" stopTime="00:00:00" timeLoss="00:00:560.89" rerouteNo="1" devices="tripinfo_carflow5.1 routing_carflow5.1" vType="car3" speedFactor="0.91" vaporized=""/>
    <tripinfo id="carflow41.1" depart="00:00:46" departLane="D24_0" departPos="5.10" departSpeed="0.00" departDelay="00:00:120.67" arrival="00:05:04" arrivalLane="D21_0" arrivalPos="486.40" arrivalSpeed="10.92" duration="00:04:18" routeLength="1994.90" waitingTime="00:00:22" waitingCount="3" stopTime="00:00:00" timeLoss="00:01:170.99" rerouteNo="1" devices="tripinfo_carflow41.1 routing_carflow41.1" vType="car4" speedFactor="0.80" vaporized=""/>
    <tripinfo id="carflow11.3" depart="00:01:53" departLane="D4_0" departPos="4.10" departSpeed="0.00" departDelay="00:00:13" arrival="00:05:08" arrivalLane="D11_1" arrivalPos="486.40" arrivalSpeed="12.53" duration="00:03:15" routeLength="2478.37" waitingTime="00:00:00" waitingCount="0" stopTime="00:00:00" timeLoss="00:00:290.84" rerouteNo="1" devices="tripinfo_carflow11.3 routing_carflow11.3" vType="car3" speedFactor="1.09" vaporized=""/>
    <tripinfo id="carflow25.1" depart="00:00:43" departLane="D18_0" departPos="6.10" departSpeed="0.00" departDelay="00:00:090.67" arrival="00:05:09" arrivalLane="D21_0" arrivalPos="486.40" arrivalSpeed="11.96" duration="00:04:26" routeLength="2975.62" waitingTime="00:00:00" waitingCount="0" stopTime="00:00:00" timeLoss="00:00:490.86" rerouteNo="1" devices="tripinfo_carflow25.1 routing_carflow25.1" vType="car2" speedFactor="1.00" vaporized=""/>
    <tripinfo id="carflow11.2" depart="00:01:20" departLane="D4_0" departPos="4.10" departSpeed="0.00" departDelay="00:00:130.33" arrival="00:05:09" arrivalLane="D11_0" arrivalPos="486.40" arrivalSpeed="13.46" duration="00:03:49" routeLength="2478.37" waitingTime="00:00:01" waitingCount="1" stopTime="00:00:00" timeLoss="00:00:450.98" rerouteNo="1" devices="tripinfo_carflow11.2 routing_carflow11.2" vType="car3" speedFactor="0.98" vaporized=""/>
    <tripinfo id="carflow29.3" depart="00:01:48" departLane="D20_0" departPos="5.10" departSpeed="0.00" departDelay="00:00:08" arrival="00:05:11" arrivalLane="D17_0" arrivalPos="486.40" arrivalSpeed="10.74" duration="00:03:23" routeLength="1994.90" waitingTime="00:00:28" waitingCount="1" stopTime="00:00:00" timeLoss="00:01:000.29" rerouteNo="1" devices="tripinfo_carflow29.3 routing_carflow29.3" vType="car4" speedFactor="1.01" vaporized=""/>
    <tripinfo id="carflow22.3" depart="00:01:40" departLane="D18_0" departPos="4.10" departSpeed="0.00" departDelay="00:00:00" arrival="00:05:12" arrivalLane="D13_0" arrivalPos="500.00" arrivalSpeed="13.98" duration="00:03:32" routeLength="2477.83" waitingTime="00:00:00" waitingCount="0" stopTime="00:00:00" timeLoss="00:00:350.2" rerouteNo="1" devices="tripinfo_carflow22.3 routing_carflow22.3" vType="car3" speedFactor="1.01" vaporized=""/>
    <tripinfo id="carflow38.3" depart="00:01:43" departLane="D24_0" departPos="6.10" departSpeed="0.00" departDelay="00:00:03" arrival="00:05:13" arrivalLane="D15_0" arrivalPos="500.00" arrivalSpeed="13.68" duration="00:03:30" routeLength="2493.94" waitingTime="00:00:00" waitingCount="0" stopTime="00:00:00" timeLoss="00:00:440.62" rerouteNo="1" devices="tripinfo_carflow38.3 routing_carflow38.3" vType="car2" speedFactor="1.09" vaporized=""/>
    <tripinfo id="carflow31.1" depart="00:00:48" departLane="D20_0" departPos="5.10" departSpeed="0.00" departDelay="00:00:140.67" arrival="00:05:15" arrivalLane="D23_0" arrivalPos="486.40" arrivalSpeed="14.27" duration="00:04:27" routeLength="2976.61" waitingTime="00:00:30" waitingCount="4" stopTime="00:00:00" timeLoss="00:01:220.42" rerouteNo="1" devices="tripinfo_carflow31.1 routing_carflow31.1" vType="car4" speedFactor="1.17" vaporized=""/>
    <tripinfo id="carflow2.0" depart="00:00:00" departLane="D2_0" departPos="4.10" departSpeed="0.00" departDelay="00:00:00" arrival="00:05:18" arrivalLane="D3_0" arrivalPos="500.00" arrivalSpeed="12.69" duration="00:05:18" routeLength="3960.36" waitingTime="00:00:00" waitingCount="0" stopTime="00:00:00" timeLoss="00:00:480.58" rerouteNo="1" devices="tripinfo_carflow2.0 routing_carflow2.0" vType="car3" speedFactor="1.06" vaporized=""/>
    <tripinfo id="carflow13.0" depart="00:00:04" departLane="D6_0" departPos="4.60" departSpeed="0.00" departDelay="00:00:04" arrival="00:05:21" arrivalLane="D3_0" arrivalPos="500.00" arrivalSpeed="15.59" duration="00:05:17" routeLength="3996.14" waitingTime="00:00:16" waitingCount="2" stopTime="00:00:00" timeLoss="00:01:100.81" rerouteNo="1" devices="tripinfo_carflow13.0 routing_carflow13.0" vType="car" speedFactor="1.17" vaporized=""/>
    <tripinfo id="carflow10.0" depart="00:00:08" departLane="D4_0" departPos="4.60" departSpeed="0.00" departDelay="00:00:08" arrival="00:05:24" arrivalLane="D9_0" arrivalPos="248.50" arrivalSpeed="12.97" duration="00:05:16" routeLength="3477.69" waitingTime="00:00:08" waitingCount="3" stopTime="00:00:00" timeLoss="00:01:190.62" rerouteNo="1" devices="tripinfo_carflow10.0 routing_carflow10.0" vType="car" speedFactor="1.07" vaporized=""/>
    <tripinfo id="carflow30.3" depart="00:01:52" departLane="D20_0" departPos="6.10" departSpeed="0.00" departDelay="00:00:12" arrival="00:05:24" arrivalLane="D21_0" arrivalPos="486.40" arrivalSpeed="10.75" duration="00:03:32" routeLength="1957.56" waitingTime="00:00:21" waitingCount="1" stopTime="00:00:00" timeLoss="00:01:100.42" rerouteNo="1" devices="tripinfo_carflow30.3 routing_carflow30.3" vType="car2" speedFactor="1.01" vaporized=""/>