<?xml version="1.0" encoding="UTF-8"?>

<!-- generated on Sat Jan 30 23:03:22 2021 by Eclipse SUMO sumo Version 1.8.0
<configuration xmlns:xsi="http://www.w3.org/2001/XMLSchema-instance" xsi:noNamespaceSchemaLocation="http://sumo.dlr.de/xsd/sumoConfiguration.xsd">

    <input>
        <net-file value="./config/demo.net.xml"/>
        <route-files value="./config/demo.rou30000.xml"/>
        <additional-files value="./config/demo.detector.xml"/>
    </input>

    <output>
        <human-readable-time value="true"/>
        <summary-output value="./config/demo.summary.xml"/>
        <tripinfo-output value="./config/demo.tripinfo.xml"/>
        <statistic-output value="./config/demo.statistic.xml"/>
    </output>

    <processing>
        <scale value="1.2"/>
        <time-to-teleport value="140"/>
        <waiting-time-memory value="50"/>
    </processing>

    <report>
        <no-warnings value="true"/>
        <duration-log.disable value="true"/>
        <no-step-log value="true"/>
    </report>

    <traci_server>
        <remote-port value="8017"/>
    </traci_server>

    <random_number>
        <seed value="17785"/>
    </random_number>

    <gui_only>
        <gui-settings-file value="./config/demo.settings.xml"/>
    </gui_only>

</configuration>
-->

<tripinfos xmlns:xsi="http://www.w3.org/2001/XMLSchema-instance" xsi:noNamespaceSchemaLocation="http://sumo.dlr.de/xsd/tripinfo_file.xsd">
    <tripinfo id="carflow51.0" depart="00:00:03" departLane="D12_0" departPos="4.10" departSpeed="0.00" departDelay="00:00:03" arrival="00:01:41" arrivalLane="D11_0" arrivalPos="486.40" arrivalSpeed="11.60" duration="00:01:38" routeLength="973.38" waitingTime="00:00:00" waitingCount="0" stopTime="00:00:00" timeLoss="00:00:190.49" rerouteNo="0" devices="tripinfo_carflow51.0 routing_carflow51.0" vType="car3" speedFactor="0.92" vaporized=""/>
    <tripinfo id="carflow51.1" depart="00:00:34" departLane="D12_0" departPos="4.10" departSpeed="0.00" departDelay="00:00:000.67" arrival="00:02:07" arrivalLane="D11_0" arrivalPos="486.40" arrivalSpeed="12.11" duration="00:01:33" routeLength="973.38" waitingTime="00:00:00" waitingCount="0" stopTime="00:00:00" timeLoss="00:00:190.86" rerouteNo="0" devices="tripinfo_carflow51.1 routing_carflow51.1" vType="car3" speedFactor="0.98" vaporized=""/>
    <tripinfo id="carflow51.2" depart="00:00:37" departLane="D12_0" departPos="4.10" departSpeed="0.00" departDelay="00:00:030.67" arrival="00:02:10" arrivalLane="D11_1" arrivalPos="486.40" arrivalSpeed="11.99" duration="00:01:33" routeLength="973.38" waitingTime="00:00:00" waitingCount="0" stopTime="00:00:00" timeLoss="00:00:200.55" rerouteNo="0" devices="tripinfo_carflow51.2 routing_carflow51.2" vType="car3" speedFactor="0.99" vaporized=""/>
    <tripinfo id="carflow51.3" depart="00:01:07" departLane="D12_0" departPos="4.10" departSpeed="0.00" departDelay="00:00:000.33" arrival="00:02:30" arrivalLane="D11_0" arrivalPos="486.40" arrivalSpeed="14.33" duration="00:01:23" routeLength="973.38" waitingTime="00:00:00" waitingCount="0" stopTime="00:00:00" timeLoss="00:00:160.8" rerouteNo="0" devices="tripinfo_carflow51.3 routing_carflow51.3" vType="car3" speedFactor="1.06" vaporized=""/>
    <tripinfo id="carflow51.4" depart="00:01:14" departLane="D12_0" departPos="4.10" departSpeed="0.00" departDelay="00:00:070.33" arrival="00:02:35" arrivalLane="D11_1" arrivalPos="486.40" arrivalSpeed="14.00" duration="00:01:21" routeLength="973.38" waitingTime="00:00:00" waitingCount="0" stopTime="00:00:00" timeLoss="00:00:190.84" rerouteNo="0" devices="tripinfo_carflow51.4 routing_carflow51.4" vType="car3" speedFactor="1.17" vaporized=""/>
    <tripinfo id="carflow33.0" depart="00:00:03" departLane="D22_0" departPos="6.10" departSpeed="0.00" departDelay="00:00:03" arrival="00:03:12" arrivalLane="D15_0" arrivalPos="500.00" arrivalSpeed="14.23" duration="00:03:09" routeLength="2475.83" waitingTime="00:00:00" waitingCount="0" stopTime="00:00:00" timeLoss="00:00:250.46" rerouteNo="1" devices="tripinfo_carflow33.0 routing_carflow33.0" vType="car2" speedFactor="1.09" vaporized=""/>
    <tripinfo id="carflow51.6" depart="00:01:48" departLane="D12_0" departPos="4.10" departSpeed="0.00" departDelay="00:00:08" arrival="00:03:26" arrivalLane="D11_1" arrivalPos="486.40" arrivalSpeed="13.50" duration="00:01:38" routeLength="973.38" waitingTime="00:00:00" waitingCount="0" stopTime="00:00:00" timeLoss="00:00:230.93" rerouteNo="0" devices="tripinfo_carflow51.6 routing_carflow51.6" vType="car3" speedFactor="0.98" vaporized=""/>
    <tripinfo id="carflow51.5" depart="00:01:41" departLane="D12_0" departPos="4.10" departSpeed="0.00" departDelay="00:00:01" arrival="00:03:27" arrivalLane="D11_0" arrivalPos="486.40" arrivalSpeed="10.65" duration="00:01:46" routeLength="973.38" waitingTime="00:00:00" waitingCount="0" stopTime="00:00:00" timeLoss="00:00:230.23" rerouteNo="0" devices="tripinfo_carflow51.5 routing_carflow51.5" vType="car3" speedFactor="0.87" vaporized=""/>
    <tripinfo id="carflow20.0" depart="00:00:10" departLane="D8_0" departPos="6.10" departSpeed="0.00" departDelay="00:00:10" arrival="00:03:38" arrivalLane="D9_0" arrivalPos="248.50" arrivalSpeed="11.13" duration="00:03:28" routeLength="2476.37" waitingTime="00:00:00" waitingCount="0" stopTime="00:00:00" timeLoss="00:00:340.40" rerouteNo="1" devices="tripinfo_carflow20.0 routing_carflow20.0" vType="car2" speedFactor="1.03" vaporized=""/>
    <tripinfo id="carflow51.8" depart="00:02:23" departLane="D12_0" departPos="4.10" departSpeed="0.00" departDelay="00:00:090.67" arrival="00:03:53" arrivalLane="D11_1" arrivalPos="486.40" arrivalSpeed="11.83" duration="00:01:30" routeLength="973.38" waitingTime="00:00:00" waitingCount="0" stopTime="00:00:00" timeLoss="00:00:210.63" rerouteNo="0" devices="tripinfo_carflow51.8 routing_carflow51.8" vType="car3" speedFactor="1.05" vaporized=""/>
    <tripinfo id="carflow51.7" depart="00:02:14" departLane="D12_0" departPos="4.10" departSpeed="0.00" departDelay="00:00:000.67" arrival="00:03:54" arrivalLane="D11_0" arrivalPos="486.40" arrivalSpeed="10.15" duration="00:01:40" routeLength="973.38" waitingTime="00:00:00" waitingCount="0" stopTime="00:00:00" timeLoss="00:00:210.53" rerouteNo="0" devices="tripinfo_carflow51.7 routing_carflow51.7" vType="car3" speedFactor="0.91" vaporized=""/>
    <tripinfo id="carflow50.0" depart="00:00:04" departLane="D10_0" departPos="6.10" departSpeed="0.00" departDelay="00:00:04" arrival="00:03:59" arrivalLane="D9_0" arrivalPos="248.50" arrivalSpeed="11.38" duration="00:03:55" routeLength="966.70" waitingTime="00:02:21" waitingCount="1" stopTime="00:00:00" timeLoss="00:02:400.35" rerouteNo="1" devices="tripinfo_carflow50.0 routing_carflow50.0" vType="car2" speedFactor="0.93" vaporized=""/>
    <tripinfo id="carflow51.9" depart="00:02:47" departLane="D12_0" departPos="4.10" departSpeed="0.00" departDelay="00:00:000.34" arrival="00:04:18" arrivalLane="D11_0" arrivalPos="486.40" arrivalSpeed="13.69" duration="00:01:31" routeLength="973.38" waitingTime="00:00:00" waitingCount="0" stopTime="00:00:00" timeLoss="00:00:200.11" rerouteNo="0" devices="tripinfo_carflow51.9 routing_carflow51.9" vType="car3" speedFactor="1.01" vaporized=""/>
    <tripinfo id="carflow51.10" depart="00:02:53" departLane="D12_0" departPos="4.10" departSpeed="0.00" departDelay="00:00:060.34" arrival="00:04:21" arrivalLane="D11_1" arrivalPos="486.40" arrivalSpeed="12.50" duration="00:01:28" routeLength="973.38" waitingTime="00:00:00" waitingCount="0" stopTime="00:00:00" timeLoss="00:00:170.87" rerouteNo="0" devices="tripinfo_carflow51.10 routing_carflow51.10" vType="car3" speedFactor="1.02" vaporized=""/>
    <tripinfo id="carflow20.1" depart="00:00:48" departLane="D8_0" departPos="6.10" departSpeed="0.00" departDelay="00:00:140.67" arrival="00:04:27" arrivalLane="D9_0" arrivalPos="248.50" arrivalSpeed="11.47" duration="00:03:39" routeLength="2476.37" waitingTime="00:00:00" waitingCount="0" stopTime="00:00:00" timeLoss="00:00:370.30" rerouteNo="1" devices="tripinfo_carflow20.1 routing_carflow20.1" vType="car2" speedFactor="0.99" vaporized=""/>
    <tripinfo id="carflow20.2" depart="00:01:18" departLane="D8_0" departPos="6.10" departSpeed="0.00" departDelay="00:00:110.33" arrival="00:04:45" arrivalLane="D9_0" arrivalPos="248.50" arrivalSpeed="11.87" duration="00:03:27" routeLength="2476.37" waitingTime="00:00:00" waitingCount="0" stopTime="00:00:00" timeLoss="00:00:340.43" rerouteNo="1" devices="tripinfo_carflow20.2 routing_carflow20.2" vType="car2" speedFactor="1.04" vaporized=""/>
    <tripinfo id="carflow51.11" depart="00:03:20" departLane="D12_0" departPos="4.10" departSpeed="0.00" departDelay="00:00:00" arrival="00:04:49" arrivalLane="D11_0" arrivalPos="486.40" arrivalSpeed="11.49" duration="00:01:29" routeLength="973.38" waitingTime="00:00:00" waitingCount="0" stopTime="00:00:00" timeLoss="00:00:180.87" rerouteNo="0" devices="tripinfo_carflow51.11 routing_carflow51.11" vType="car3" speedFactor="1.03" vaporized=""/>
    <tripinfo id="carflow51.12" depart="00:03:24" departLane="D12_0" departPos="4.10" departSpeed="0.00" departDelay="00:00:04" arrival="00:04:54" arrivalLane="D11_0" arrivalPos="486.40" arrivalSpeed="11.79" duration="00:01:30" routeLength="973.38" waitingTime="00:00:00" waitingCount="0" stopTime="00:00:00" timeLoss="00:00:210.79" rerouteNo="0" devices="tripinfo_carflow51.12 routing_carflow51.12" vType="car3" speedFactor="1.05" vaporized=""/>
    <tripinfo id="carflow51.13" depart="00:03:54" departLane="D12_0" departPos="4.10" departSpeed="0.00" departDelay="00:00:000.67" arrival="00:05:19" arrivalLane="D11_0" arrivalPos="486.40" arrivalSpeed="11.35" duration="00:01:25" routeLength="973.38" waitingTime="00:00:00" waitingCount="0" stopTime="00:00:00" timeLoss="00:00:170.54" rerouteNo="0" devices="tripinfo_carflow51.13 routing_carflow51.13" vType="car3" speedFactor="1.06" vaporized=""/>
    <tripinfo id="carflow51.14" depart="00:03:57" departLane="D12_0" departPos="4.10" departSpeed="0.00" departDelay="00:00:030.67" arrival="00:05:23" arrivalLane="D11_1" arrivalPos="486.40" arrivalSpeed="14.65" duration="00:01:26" routeLength="973.38" waitingTime="00:00:00" waitingCount="0" stopTime="00:00:00" timeLoss="00:00:210.68" rerouteNo="0" devices="tripinfo_carflow51.14 routing_carflow51.14" vType="car3" speedFactor="1.11" vaporized=""/>
    <tripinfo id="carflow20.3" depart="00:01:51" departLane="D8_0" departPos="6.10" departSpeed="0.00" departDelay="00:00:11" arrival="00:05:25" arrivalLane="D9_0" arrivalPos="248.50" arrivalSpeed="13.41" duration="00:03:34" routeLength="2476.37" waitingTime="00:00:00" waitingCount="0" stopTime="00:00:00" timeLoss="00:00:350.93" rerouteNo="1" devices="tripinfo_carflow20.3 routing_carflow20.3" vType="car2" speedFactor="1.01" vaporized=""/>
    <tripinfo id="carflow14.0" depart="00:00:06" departLane="D6_0" departPos="5.10" departSpeed="0.00" departDelay="00:00:06" arrival="00:05:34" arrivalLane="D7_0" arrivalPos="500.00" arrivalSpeed="13.46" duration="00:05:28" routeLength="3959.30" waitingTime="00:00:00" waitingCount="0" stopTime="00:00:00" timeLoss="00:00:470.67" rerouteNo="1" devices="tripinfo_carflow14.0 routing_carflow14.0" vType="car4" speedFactor="1.03" vaporized=""/>
    <tripinfo id="carflow20.4" depart="00:02:27" departLane="D8_0" departPos="6.10" departSpeed="0.00" departDelay="00:00:130.67" arrival="00:05:51" arrivalLane="D9_0" arrivalPos="248.50" arrivalSpeed="13.96" duration="00:03:24" routeLength="2476.37" waitingTime="00:00:00" waitingCount="0" stopTime="00:00:00" timeLoss="00:00:300.18" rerouteNo="1" devices="tripinfo_carflow20.4 routing_carflow20.4" vType="car2" speedFactor="1.03" vaporized=""/>
    <tripinfo id="carflow14.1" depart="00:00:42" departLane="D6_0" departPos="5.10" departSpeed="0.00" departDelay="00:00:080.67" arrival="00:06:02" arrivalLane="D7_0" arrivalPos="500.00" arrivalSpeed="11.99" duration="00:05:20" routeLength="3959.30" waitingTime="00:00:00" waitingCount="0" stopTime="00:00:00" timeLoss="00:00:460.26" rerouteNo="1" devices="tripinfo_carflow14.1 routing_carflow14.1" vType="car4" speedFactor="1.05" vaporized=""/>
    <tripinfo id="carflow51.15" depart="00:04:27" departLane="D12_0" departPos="4.10" departSpeed="0.00" departDelay="00:00:000.34" arrival="00:06:02" arrivalLane="D11_0" arrivalPos="486.40" arrivalSpeed="12.59" duration="00:01:35" routeLength="973.38" waitingTime="00:00:00" waitingCount="0" stopTime="00:00:00" timeLoss="00:00:210.45" rerouteNo="0" devices="tripinfo_carflow51.15 routing_carflow51.15" vType="car3" speedFactor="0.96" vaporized=""/>
    <tripinfo id="carflow26.1" depart="00:00:34" departLane="D18_0" departPos="5.10" departSpeed="0.00" departDelay="00:00:000.67" arrival="00:06:04" arrivalLane="D23_0" arrivalPos="486.40" arrivalSpeed="12.63" duration="00:05:30" routeLength="1964.95" waitingTime="00:02:24" waitingCount="2" stopTime="00:00:00" timeLoss="00:03:000.70" rerouteNo="1" devices="tripinfo_carflow26.1 routing_carflow26.1" vType="car4" speedFactor="0.95" vaporized=""/>
    <tripinfo id="carflow51.16" depart="00:04:33" departLane="D12_0" departPos="4.10" departSpeed="0.00" departDelay="00:00:060.34" arrival="00:06:07" arrivalLane="D11_0" arrivalPos="486.40" arrivalSpeed="12.56" duration="00:01:34" routeLength="973.38" waitingTime="00:00:00" waitingCount="0" stopTime="00:00:00" timeLoss="00:00:190.82" rerouteNo="0" devices="tripinfo_carflow51.16 routing_carflow51.16" vType="car3" speedFactor="0.96" vaporized=""/>
    <tripinfo id="carflow16.0" depart="00:00:11" departLane="D6_0" departPos="5.10" departSpeed="0.00" departDelay="00:00:11" arrival="00:06:15" arrivalLane="D11_0" arrivalPos="486.40" arrivalSpeed="12.53" duration="00:06:04" routeLength="2468.34" waitingTime="00:02:21" waitingCount="1" stopTime="00:00:00" timeLoss="00:02:560.4" rerouteNo="1" devices="tripinfo_carflow16.0 routing_carflow16.0" vType="car4" speedFactor="0.95" vaporized=""/>
    <tripinfo id="carflow50.1" depart="00:00:38" departLane="D10_0" departPos="6.10" departSpeed="0.00" departDelay="00:00:040.67" arrival="00:06:17" arrivalLane="D9_0" arrivalPos="248.50" arrivalSpeed="13.36" duration="00:05:39" routeLength="966.70" waitingTime="00:04:18" waitingCount="3" stopTime="00:00:00" timeLoss="00:04:350.74" rerouteNo="1" devices="tripinfo_carflow50.1 routing_carflow50.1" vType="car2" speedFactor="1.09" vaporized=""/>
    <tripinfo id="carflow51.17" depart="00:05:00" departLane="D12_0" departPos="4.10" departSpeed="0.00" departDelay="00:00:00" arrival="00:06:20" arrivalLane="D11_1" arrivalPos="486.40" arrivalSpeed="15.22" duration="00:01:20" routeLength="973.38" waitingTime="00:00:00" waitingCount="0" stopTime="00:00:00" timeLoss="00:00:150.74" rerouteNo="0" devices="tripinfo_carflow51.17 routing_carflow51.17" vType="car3" speedFactor="1.11" vaporized=""/>
    <tripinfo id="carflow42.0" depart="00:00:00" departLane="D10_0" departPos="6.10" departSpeed="0.00" departDelay="00:00:00" arrival="00:06:30" arrivalLane="D11_0" arrivalPos="486.40" arrivalSpeed="13.59" duration="00:06:30" routeLength="1990.21" waitingTime="00:03:35" waitingCount="3" stopTime="00:00:00" timeLoss="00:04:160.91" rerouteNo="1" devices="tripinfo_carflow42.0 routing_carflow42.0" vType="car2" speedFactor="1.08" vaporized=""/>
    <tripinfo id="carflow43.1" depart="00:00:36" departLane="D12_0" departPos="4.60" departSpeed="0.00" departDelay="00:00:020.67" arrival="00:06:31" arrivalLane="D9_1" arrivalPos="248.50" arrivalSpeed="11.29" duration="00:05:55" routeLength="1992.74" waitingTime="00:02:50" waitingCount="2" stopTime="00:00:00" timeLoss="00:03:330.18" rerouteNo="1" devices="tripinfo_carflow43.1 routing_carflow43.1" vType="car" speedFactor="1.02" vaporized=""/>
    <tripinfo id="carflow43.0" depart="00:00:00" departLane="D12_0" departPos="4.60" departSpeed="0.00" departDelay="00:00:00" arrival="00:06:32" arrivalLane="D9_0" arrivalPos="248.50" arrivalSpeed="11.67" duration="00:06:32" routeLength="1992.74" waitingTime="00:03:18" waitingCount="2" stopTime="00:00:00" timeLoss="00:03:580.35" rerouteNo="1" devices="tripinfo_carflow43.0 routing_carflow43.0" vType="car" speedFactor="0.94" vaporized=""/>
    <tripinfo id="carflow42.1" depart="00:00:34" departLane="D10_0" departPos="6.10" departSpeed="0.00" departDelay="00:00:000.67" arrival="00:06:34" arrivalLane="D11_2" arrivalPos="486.40" arrivalSpeed="13.05" duration="00:06:00" routeLength="1990.21" waitingTime="00:02:57" waitingCount="4" stopTime="00:00:00" timeLoss="00:03:360.62" rerouteNo="1" devices="tripinfo_carflow42.1 routing_carflow42.1" vType="car2" speedFactor="1.01" vaporized=""/>
    <tripinfo id="carflow11.0" depart="00:00:11" departLane="D4_0" departPos="4.10" departSpeed="0.00" departDelay="00:00:11" arrival="00:06:37" arrivalLane="D11_0" arrivalPos="486.40" arrivalSpeed="8.84" duration="00:06:26" routeLength="2478.37" waitingTime="00:02:10" waitingCount="1" stopTime="00:00:00" timeLoss="00:02:580.27" rerouteNo="1" devices="tripinfo_carflow11.0 routing_carflow11.0" vType="car3" speedFactor="0.86" vaporized=""/>
    <tripinfo id="carflow11.1" depart="00:00:34" departLane="D4_0" departPos="4.10" departSpeed="0.00" departDelay="00:00:000.67" arrival="00:06:41" arrivalLane="D11_0" arrivalPos="486.40" arrivalSpeed="11.44" duration="00:06:07" routeLength="2478.37" waitingTime="00:02:11" waitingCount="2" stopTime="00:00:00" timeLoss="00:03:000.65" rerouteNo="1" devices="tripinfo_carflow11.1 routing_carflow11.1" vType="car3" speedFactor="0.96" vaporized=""/>
    <tripinfo id="carflow11.4" depart="00:01:26" departLane="D4_0" departPos="4.10" departSpeed="0.00" departDelay="00:00:190.33" arrival="00:06:41" arrivalLane="D11_2" arrivalPos="486.40" arrivalSpeed="11.94" duration="00:05:15" routeLength="2478.37" waitingTime="00:01:44" waitingCount="1" stopTime="00:00:00" timeLoss="00:02:280.98" rerouteNo="1" devices="tripinfo_carflow11.4 routing_carflow11.4" vType="car3" speedFactor="1.08" vaporized=""/>
    <tripinfo id="carflow51.18" depart="00:05:06" departLane="D12_0" departPos="4.10" departSpeed="0.00" departDelay="00:00:06" arrival="00:06:42" arrivalLane="D11_1" arrivalPos="486.40" arrivalSpeed="11.74" duration="00:01:36" routeLength="973.38" waitingTime="00:00:00" waitingCount="0" stopTime="00:00:00" timeLoss="00:00:190.93" rerouteNo="0" devices="tripinfo_carflow51.18 routing_carflow51.18" vType="car3" speedFactor="0.93" vaporized=""/>
    <tripinfo id="carflow11.5" depart="00:01:40" departLane="D4_0" departPos="4.10" departSpeed="0.00" departDelay="00:00:00" arrival="00:06:43" arrivalLane="D11_2" arrivalPos="486.40" arrivalSpeed="16.00" duration="00:05:03" routeLength="2478.37" waitingTime="00:01:14" waitingCount="2" stopTime="00:00:00" timeLoss="00:02:270.57" rerouteNo="1" devices="tripinfo_carflow11.5 routing_carflow11.5" vType="car3" speedFactor="1.15" vaporized=""/>
    <tripinfo id="carflow11.2" depart="00:00:48" departLane="D4_0" departPos="4.10" departSpeed="0.00" departDelay="00:00:140.67" arrival="00:06:44" arrivalLane="D11_0" arrivalPos="486.40" arrivalSpeed="10.38" duration="00:05:56" routeLength="2478.37" waitingTime="00:02:02" waitingCount="4" stopTime="00:00:00" timeLoss="00:02:530.58" rerouteNo="1" devices="tripinfo_carflow11.2 routing_carflow11.2" vType="car3" speedFactor="0.98" vaporized=""/>
    <tripinfo id="carflow20.6" depart="00:03:33" departLane="D8_0" departPos="6.10" departSpeed="0.00" departDelay="00:00:13" arrival="00:06:59" arrivalLane="D9_0" arrivalPos="248.50" arrivalSpeed="11.62" duration="00:03:26" routeLength="2476.37" waitingTime="00:00:01" waitingCount="1" stopTime="00:00:00" timeLoss="00:00:350.35" rerouteNo="1" devices="tripinfo_carflow20.6 routing_carflow20.6" vType="car2" speedFactor="1.05" vaporized=""/>
    <tripinfo id="carflow51.19" depart="00:05:34" departLane="D12_0" departPos="4.10" departSpeed="0.00" departDelay="00:00:000.67" arrival="00:07:01" arrivalLane="D11_0" arrivalPos="486.40" arrivalSpeed="13.26" duration="00:01:27" routeLength="973.38" waitingTime="00:00:00" waitingCount="0" stopTime="00:00:00" timeLoss="00:00:160.45" rerouteNo="0" devices="tripinfo_carflow51.19 routing_carflow51.19" vType="car3" speedFactor="1.02" vaporized=""/>
    <tripinfo id="carflow51.20" depart="00:05:41" departLane="D12_0" departPos="4.10" departSpeed="0.00" departDelay="00:00:070.67" arrival="00:07:06" arrivalLane="D11_0" arrivalPos="486.40" arrivalSpeed="13.04" duration="00:01:25" routeLength="973.38" waitingTime="00:00:00" waitingCount="0" stopTime="00:00:00" timeLoss="00:00:230.23" rerouteNo="0" devices="tripinfo_carflow51.20 routing_carflow51.20" vType="car3" speedFactor="1.16" vaporized=""/>
    <tripinfo id="carflow51.21" depart="00:06:07" departLane="D12_0" departPos="4.10" departSpeed="0.00" departDelay="00:00:000.34" arrival="00:07:30" arrivalLane="D11_0" arrivalPos="486.40" arrivalSpeed="12.38" duration="00:01:23" routeLength="973.38" waitingTime="00:00:00" waitingCount="0" stopTime="00:00:00" timeLoss="00:00:170.48" rerouteNo="0" devices="tripinfo_carflow51.21 routing_carflow51.21" vType="car3" speedFactor="1.10" vaporized=""/>
    <tripinfo id="carflow44.0" depart="00:00:00" departLane="D14_0" departPos="6.10" departSpeed="0.00" departDelay="00:00:00" arrival="00:07:35" arrivalLane="D15_0" arrivalPos="500.00" arrivalSpeed="13.44" duration="00:07:35" routeLength="3987.03" waitingTime="00:02:22" waitingCount="2" stopTime="00:00:00" timeLoss="00:03:160.36" rerouteNo="1" devices="tripinfo_carflow44.0 routing_carflow44.0" vType="car2" speedFactor="1.11" vaporized=""/>
    <tripinfo id="carflow20.7" depart="00:04:05" departLane="D8_0" departPos="6.10" departSpeed="0.00" departDelay="00:00:110.67" arrival="00:07:39" arrivalLane="D9_0" arrivalPos="248.50" arrivalSpeed="12.10" duration="00:03:34" routeLength="2476.37" waitingTime="00:00:00" waitingCount="0" stopTime="00:00:00" timeLoss="00:00:390.56" rerouteNo="1" devices="tripinfo_carflow20.7 routing_carflow20.7" vType="car2" speedFactor="1.03" vaporized=""/>
    <tripinfo id="carflow10.0" depart="00:00:09" departLane="D4_0" departPos="4.60" departSpeed="0.00" departDelay="00:00:09" arrival="00:07:41" arrivalLane="D9_2" arrivalPos="248.50" arrivalSpeed="14.19" duration="00:07:32" routeLength="3450.49" waitingTime="00:02:33" waitingCount="2" stopTime="00:00:00" timeLoss="00:03:280.97" rerouteNo="1" devices="tripinfo_carflow10.0 routing_carflow10.0" vType="car" speedFactor="1.03" vaporized=""/>
    <tripinfo id="carflow24.0" depart="00:00:05" departLane="D18_0" departPos="5.10" departSpeed="0.00" departDelay="00:00:05" arrival="00:07:41" arrivalLane="D19_0" arrivalPos="486.40" arrivalSpeed="12.06" duration="00:07:36" routeLength="1940.50" waitingTime="00:04:44" waitingCount="4" stopTime="00:00:00" timeLoss="00:05:170.12" rerouteNo="1" devices="tripinfo_carflow24.0 routing_carflow24.0" vType="car4" speedFactor="1.00" vaporized=""/>
    <tripinfo id="carflow36.0" depart="00:00:13" departLane="D22_0" departPos="5.10" departSpeed="0.00" departDelay="00:00:13" arrival="00:07:42" arrivalLane="D23_0" arrivalPos="486.40" arrivalSpeed="13.27" duration="00:07:29" routeLength="1940.50" waitingTime="00:04:43" waitingCount="3" stopTime="00:00:00" timeLoss="00:05:130.93" rerouteNo="1" devices="tripinfo_carflow36.0 routing_carflow36.0" vType="car4" speedFactor="1.03" vaporized=""/>
    <tripinfo id="carflow23.0" depart="00:00:03" departLane="D18_0" departPos="6.10" departSpeed="0.00" departDelay="00:00:03" arrival="00:07:50" arrivalLane="D15_0" arrivalPos="500.00" arrivalSpeed="11.86" duration="00:07:47" routeLength="3448.52" waitingTime="00:02:22" waitingCount="2" stopTime="00:00:00" timeLoss="00:03:160.24" rerouteNo="1" devices="tripinfo_carflow23.0 routing_carflow23.0" vType="car2" speedFactor="0.92" vaporized=""/>
    <tripinfo id="carflow20.8" depart="00:04:38" departLane="D8_0" departPos="6.10" departSpeed="0.00" departDelay="00:00:110.34" arrival="00:07:50" arrivalLane="D9_1" arrivalPos="248.50" arrivalSpeed="14.24" duration="00:03:12" routeLength="2476.37" waitingTime="00:00:00" waitingCount="0" stopTime="00:00:00" timeLoss="00:00:330.96" rerouteNo="1" devices="tripinfo_carflow20.8 routing_carflow20.8" vType="car2" speedFactor="1.13" vaporized=""/>
    <tripinfo id="carflow27.0" depart="00:00:00" departLane="D20_0" departPos="4.10" departSpeed="0.00" departDelay="00:00:00" arrival="00:07:52" arrivalLane="D13_0" arrivalPos="500.00" arrivalSpeed="12.90" duration="00:07:52" routeLength="2441.60" waitingTime="00:04:42" waitingCount="2" stopTime="00:00:00" timeLoss="00:05:160.42" rerouteNo="1" devices="tripinfo_carflow27.0 routing_carflow27.0" vType="car3" speedFactor="1.13" vaporized=""/>
    <tripinfo id="carflow36.1" depart="00:00:34" departLane="D22_0" departPos="5.10" departSpeed="0.00" departDelay="00:00:000.67" arrival="00:07:52" arrivalLane="D23_0" arrivalPos="486.40" arrivalSpeed="14.44" duration="00:07:18" routeLength="1940.50" waitingTime="00:04:43" waitingCount="3" stopTime="00:00:00" timeLoss="00:05:120.93" rerouteNo="1" devices="tripinfo_carflow36.1 routing_carflow36.1" vType="car4" speedFactor="1.11" vaporized=""/>
    <tripinfo id="carflow20.5" depart="00:03:00" departLane="D8_0" departPos="6.10" departSpeed="0.00" departDelay="00:00:130.34" arrival="00:07:53" arrivalLane="D9_0" arrivalPos="248.50" arrivalSpeed="9.11" duration="00:04:53" routeLength="2476.37" waitingTime="00:00:00" waitingCount="0" stopTime="00:00:00" timeLoss="00:00:510.73" rerouteNo="1" devices="tripinfo_carflow20.5 routing_carflow20.5" vType="car2" speedFactor="0.74" vaporized=""/>
    <tripinfo id="carflow24.1" depart="00:00:43" departLane="D18_0" departPos="5.10" departSpeed="0.00" departDelay="00:00:090.67" arrival="00:07:54" arrivalLane="D19_0" arrivalPos="486.40" arrivalSpeed="13.93" duration="00:07:11" routeLength="1940.50" waitingTime="00:04:43" waitingCount="3" stopTime="00:00:00" timeLoss="00:05:140.41" rerouteNo="1" devices="tripinfo_carflow24.1 routing_carflow24.1" vType="car4" speedFactor="1.19" vaporized=""/>
    <tripinfo id="carflow51.22" depart="00:06:15" departLane="D12_0" departPos="4.10" departSpeed="0.00" departDelay="00:00:080.34" arrival="00:07:54" arrivalLane="D11_0" arrivalPos="486.40" arrivalSpeed="9.74" duration="00:01:39" routeLength="973.38" waitingTime="00:00:00" waitingCount="0" stopTime="00:00:00" timeLoss="00:00:220.47" rerouteNo="0" devices="tripinfo_carflow51.22 routing_carflow51.22" vType="car3" speedFactor="0.93" vaporized=""/>
    <tripinfo id="carflow37.0" depart="00:00:00" departLane="D24_0" departPos="4.10" departSpeed="0.00" departDelay="00:00:00" arrival="00:07:58" arrivalLane="D13_0" arrivalPos="500.00" arrivalSpeed="11.27" duration="00:07:58" routeLength="3440.33" waitingTime="00:02:19" waitingCount="2" stopTime="00:00:00" timeLoss="00:03:410.64" rerouteNo="1" devices="tripinfo_carflow37.0 routing_carflow37.0" vType="car3" speedFactor="0.98" vaporized=""/>
    <tripinfo id="carflow37.1" depart="00:00:37" departLane="D24_0" departPos="4.10" departSpeed="0.00" departDelay="00:00:030.67" arrival="00:08:00" arrivalLane="D13_0" arrivalPos="500.00" arrivalSpeed="13.98" duration="00:07:23" routeLength="3440.33" waitingTime="00:01:58" waitingCount="2" stopTime="00:00:00" timeLoss="00:03:150.82" rerouteNo="1" devices="tripinfo_carflow37.1 routing_carflow37.1" vType="car3" speedFactor="1.01" vaporized=""/>
    <tripinfo id="carflow37.3" depart="00:01:43" departLane="D24_0" departPos="4.10" departSpeed="0.00" departDelay="00:00:03" arrival="00:08:00" arrivalLane="D13_1" arrivalPos="500.00" arrivalSpeed="15.88" duration="00:06:17" routeLength="3440.33" waitingTime="00:01:20" waitingCount="5" stopTime="00:00:00" timeLoss="00:02:400.27" rerouteNo="1" devices="tripinfo_carflow37.3 routing_carflow37.3" vType="car3" speedFactor="1.16" vaporized=""/>
    <tripinfo id="carflow8.1" depart="00:00:41" departLane="D4_0" departPos="4.10" departSpeed="0.00" departDelay="00:00:070.67" arrival="00:08:05" arrivalLane="D5_0" arrivalPos="500.00" arrivalSpeed="13.80" duration="00:07:24" routeLength="3969.44" waitingTime="00:02:21" waitingCount="1" stopTime="00:00:00" timeLoss="00:03:060.81" rerouteNo="1" devices="tripinfo_carflow8.1 routing_carflow8.1" vType="car3" speedFactor="1.11" vaporized=""/>
    <tripinfo id="carflow49.0" depart="00:00:15" departLane="D8_0" departPos="5.10" departSpeed="0.00" departDelay="00:00:15" arrival="00:08:08" arrivalLane="D7_0" arrivalPos="500.00" arrivalSpeed="13.19" duration="00:07:53" routeLength="3945.92" waitingTime="00:02:21" waitingCount="1" stopTime="00:00:00" timeLoss="00:03:120.86" rerouteNo="1" devices="tripinfo_carflow49.0 routing_carflow49.0" vType="car4" speedFactor="1.02" vaporized=""/>
    <tripinfo id="carflow51.23" depart="00:06:41" departLane="D12_0" departPos="4.10" departSpeed="0.00" departDelay="00:00:01" arrival="00:08:08" arrivalLane="D11_0" arrivalPos="486.40" arrivalSpeed="13.72" duration="00:01:27" routeLength="973.38" waitingTime="00:00:00" waitingCount="0" stopTime="00:00:00" timeLoss="00:00:170.91" rerouteNo="0" devices="tripinfo_carflow51.23 routing_carflow51.23" vType="car3" speedFactor="1.04" vaporized=""/>
    <tripinfo id="carflow51.24" depart="00:06:46" departLane="D12_0" departPos="4.10" departSpeed="0.00" departDelay="00:00:06" arrival="00:08:17" arrivalLane="D11_0" arrivalPos="486.40" arrivalSpeed="13.26" duration="00:01:31" routeLength="973.38" waitingTime="00:00:00" waitingCount="0" stopTime="00:00:00" timeLoss="00:00:180.92" rerouteNo="0" devices="tripinfo_carflow51.24 routing_carflow51.24" vType="car3" speedFactor="1.01" vaporized=""/>