<?xml version="1.0" encoding="UTF-8"?>

<!-- generated on Sat Jan 30 16:59:41 2021 by Eclipse SUMO sumo Version 1.8.0
<configuration xmlns:xsi="http://www.w3.org/2001/XMLSchema-instance" xsi:noNamespaceSchemaLocation="http://sumo.dlr.de/xsd/sumoConfiguration.xsd">

    <input>
        <net-file value="./config/demo.net.xml"/>
        <route-files value="./config/demo.rou30000.xml"/>
        <additional-files value="./config/demo.detector.xml"/>
    </input>

    <output>
        <human-readable-time value="true"/>
        <summary-output value="./config/demo.summary.xml"/>
        <tripinfo-output value="./config/demo.tripinfo.xml"/>
        <statistic-output value="./config/demo.statistic.xml"/>
    </output>

    <processing>
        <scale value="1.2"/>
        <time-to-teleport value="140"/>
        <waiting-time-memory value="50"/>
    </processing>

    <report>
        <no-warnings value="true"/>
        <duration-log.disable value="true"/>
        <no-step-log value="true"/>
    </report>

    <traci_server>
        <remote-port value="8017"/>
    </traci_server>

    <random_number>
        <seed value="81386"/>
    </random_number>

    <gui_only>
        <gui-settings-file value="./config/demo.settings.xml"/>
    </gui_only>

</configuration>
-->

<tripinfos xmlns:xsi="http://www.w3.org/2001/XMLSchema-instance" xsi:noNamespaceSchemaLocation="http://sumo.dlr.de/xsd/tripinfo_file.xsd">
    <tripinfo id="carflow51.0" depart="00:00:02" departLane="D12_0" departPos="4.10" departSpeed="0.00" departDelay="00:00:02" arrival="00:01:38" arrivalLane="D11_0" arrivalPos="486.40" arrivalSpeed="13.13" duration="00:01:36" routeLength="973.38" waitingTime="00:00:00" waitingCount="0" stopTime="00:00:00" timeLoss="00:00:210.39" rerouteNo="0" devices="tripinfo_carflow51.0 routing_carflow51.0" vType="car3" speedFactor="0.96" vaporized=""/>
    <tripinfo id="carflow51.1" depart="00:00:34" departLane="D12_0" departPos="4.10" departSpeed="0.00" departDelay="00:00:000.67" arrival="00:01:58" arrivalLane="D11_0" arrivalPos="486.40" arrivalSpeed="12.70" duration="00:01:24" routeLength="973.38" waitingTime="00:00:00" waitingCount="0" stopTime="00:00:00" timeLoss="00:00:150.90" rerouteNo="0" devices="tripinfo_carflow51.1 routing_carflow51.1" vType="car3" speedFactor="1.04" vaporized=""/>
    <tripinfo id="carflow51.2" depart="00:00:39" departLane="D12_0" departPos="4.10" departSpeed="0.00" departDelay="00:00:050.67" arrival="00:02:08" arrivalLane="D11_0" arrivalPos="486.40" arrivalSpeed="11.77" duration="00:01:29" routeLength="973.38" waitingTime="00:00:00" waitingCount="0" stopTime="00:00:00" timeLoss="00:00:180.66" rerouteNo="0" devices="tripinfo_carflow51.2 routing_carflow51.2" vType="car3" speedFactor="1.02" vaporized=""/>
    <tripinfo id="carflow51.3" depart="00:01:07" departLane="D12_0" departPos="4.10" departSpeed="0.00" departDelay="00:00:000.33" arrival="00:02:38" arrivalLane="D11_0" arrivalPos="486.40" arrivalSpeed="11.81" duration="00:01:31" routeLength="973.38" waitingTime="00:00:00" waitingCount="0" stopTime="00:00:00" timeLoss="00:00:220.74" rerouteNo="0" devices="tripinfo_carflow51.3 routing_carflow51.3" vType="car3" speedFactor="1.05" vaporized=""/>
    <tripinfo id="carflow51.4" depart="00:01:12" departLane="D12_0" departPos="4.10" departSpeed="0.00" departDelay="00:00:050.33" arrival="00:02:46" arrivalLane="D11_0" arrivalPos="486.40" arrivalSpeed="10.55" duration="00:01:34" routeLength="973.38" waitingTime="00:00:00" waitingCount="0" stopTime="00:00:00" timeLoss="00:00:200.94" rerouteNo="0" devices="tripinfo_carflow51.4 routing_carflow51.4" vType="car3" speedFactor="0.98" vaporized=""/>
    <tripinfo id="carflow39.0" depart="00:00:04" departLane="D24_0" departPos="5.10" departSpeed="0.00" departDelay="00:00:04" arrival="00:02:56" arrivalLane="D17_0" arrivalPos="486.40" arrivalSpeed="11.80" duration="00:02:52" routeLength="1958.50" waitingTime="00:00:00" waitingCount="0" stopTime="00:00:00" timeLoss="00:00:310.31" rerouteNo="1" devices="tripinfo_carflow39.0 routing_carflow39.0" vType="car4" speedFactor="1.02" vaporized=""/>
    <tripinfo id="carflow51.5" depart="00:01:40" departLane="D12_0" departPos="4.10" departSpeed="0.00" departDelay="00:00:00" arrival="00:02:57" arrivalLane="D11_1" arrivalPos="486.40" arrivalSpeed="14.50" duration="00:01:17" routeLength="973.38" waitingTime="00:00:00" waitingCount="0" stopTime="00:00:00" timeLoss="00:00:170.92" rerouteNo="0" devices="tripinfo_carflow51.5 routing_carflow51.5" vType="car3" speedFactor="1.20" vaporized=""/>
    <tripinfo id="carflow51.6" depart="00:01:46" departLane="D12_0" departPos="4.10" departSpeed="0.00" departDelay="00:00:06" arrival="00:03:09" arrivalLane="D11_0" arrivalPos="486.40" arrivalSpeed="14.74" duration="00:01:23" routeLength="973.38" waitingTime="00:00:00" waitingCount="0" stopTime="00:00:00" timeLoss="00:00:170.5" rerouteNo="0" devices="tripinfo_carflow51.6 routing_carflow51.6" vType="car3" speedFactor="1.08" vaporized=""/>
    <tripinfo id="carflow20.0" depart="00:00:13" departLane="D8_0" departPos="6.10" departSpeed="0.00" departDelay="00:00:13" arrival="00:03:34" arrivalLane="D9_0" arrivalPos="248.50" arrivalSpeed="13.83" duration="00:03:21" routeLength="2476.37" waitingTime="00:00:00" waitingCount="0" stopTime="00:00:00" timeLoss="00:00:280.75" rerouteNo="1" devices="tripinfo_carflow20.0 routing_carflow20.0" vType="car2" speedFactor="1.04" vaporized=""/>
    <tripinfo id="carflow50.0" depart="00:00:03" departLane="D10_0" departPos="6.10" departSpeed="0.00" departDelay="00:00:03" arrival="00:03:42" arrivalLane="D9_0" arrivalPos="248.50" arrivalSpeed="14.83" duration="00:03:39" routeLength="966.70" waitingTime="00:02:22" waitingCount="2" stopTime="00:00:00" timeLoss="00:02:370.18" rerouteNo="1" devices="tripinfo_carflow50.0 routing_carflow50.0" vType="car2" speedFactor="1.13" vaporized=""/>
    <tripinfo id="carflow51.8" depart="00:02:20" departLane="D12_0" departPos="4.10" departSpeed="0.00" departDelay="00:00:060.67" arrival="00:03:54" arrivalLane="D11_1" arrivalPos="486.40" arrivalSpeed="13.27" duration="00:01:34" routeLength="973.38" waitingTime="00:00:00" waitingCount="0" stopTime="00:00:00" timeLoss="00:00:280.58" rerouteNo="0" devices="tripinfo_carflow51.8 routing_carflow51.8" vType="car3" speedFactor="1.09" vaporized=""/>
    <tripinfo id="carflow51.7" depart="00:02:14" departLane="D12_0" departPos="4.10" departSpeed="0.00" departDelay="00:00:000.67" arrival="00:04:01" arrivalLane="D11_0" arrivalPos="486.40" arrivalSpeed="9.62" duration="00:01:47" routeLength="973.38" waitingTime="00:00:00" waitingCount="0" stopTime="00:00:00" timeLoss="00:00:200.3" rerouteNo="0" devices="tripinfo_carflow51.7 routing_carflow51.7" vType="car3" speedFactor="0.82" vaporized=""/>
    <tripinfo id="carflow51.9" depart="00:02:47" departLane="D12_0" departPos="4.10" departSpeed="0.00" departDelay="00:00:000.34" arrival="00:04:08" arrivalLane="D11_1" arrivalPos="486.40" arrivalSpeed="15.30" duration="00:01:21" routeLength="973.38" waitingTime="00:00:00" waitingCount="0" stopTime="00:00:00" timeLoss="00:00:170.52" rerouteNo="0" devices="tripinfo_carflow51.9 routing_carflow51.9" vType="car3" speedFactor="1.14" vaporized=""/>
    <tripinfo id="carflow37.0" depart="00:00:00" departLane="D24_0" departPos="4.10" departSpeed="0.00" departDelay="00:00:00" arrival="00:04:29" arrivalLane="D13_0" arrivalPos="500.00" arrivalSpeed="14.63" duration="00:04:29" routeLength="3440.33" waitingTime="00:00:00" waitingCount="0" stopTime="00:00:00" timeLoss="00:00:430.95" rerouteNo="1" devices="tripinfo_carflow37.0 routing_carflow37.0" vType="car3" speedFactor="1.11" vaporized=""/>
    <tripinfo id="carflow51.10" depart="00:02:52" departLane="D12_0" departPos="4.10" departSpeed="0.00" departDelay="00:00:050.34" arrival="00:04:34" arrivalLane="D11_0" arrivalPos="486.40" arrivalSpeed="11.75" duration="00:01:42" routeLength="973.38" waitingTime="00:00:01" waitingCount="1" stopTime="00:00:00" timeLoss="00:00:230.96" rerouteNo="0" devices="tripinfo_carflow51.10 routing_carflow51.10" vType="car3" speedFactor="0.92" vaporized=""/>
    <tripinfo id="carflow51.11" depart="00:03:20" departLane="D12_0" departPos="4.10" departSpeed="0.00" departDelay="00:00:00" arrival="00:04:38" arrivalLane="D11_1" arrivalPos="486.40" arrivalSpeed="16.40" duration="00:01:18" routeLength="973.38" waitingTime="00:00:00" waitingCount="0" stopTime="00:00:00" timeLoss="00:00:170.59" rerouteNo="0" devices="tripinfo_carflow51.11 routing_carflow51.11" vType="car3" speedFactor="1.19" vaporized=""/>
    <tripinfo id="carflow20.1" depart="00:00:44" departLane="D8_0" departPos="6.10" departSpeed="0.00" departDelay="00:00:100.67" arrival="00:04:49" arrivalLane="D9_0" arrivalPos="248.50" arrivalSpeed="11.37" duration="00:04:05" routeLength="2476.37" waitingTime="00:00:00" waitingCount="0" stopTime="00:00:00" timeLoss="00:00:420.51" rerouteNo="1" devices="tripinfo_carflow20.1 routing_carflow20.1" vType="car2" speedFactor="0.88" vaporized=""/>
    <tripinfo id="carflow51.12" depart="00:03:25" departLane="D12_0" departPos="4.10" departSpeed="0.00" departDelay="00:00:05" arrival="00:04:58" arrivalLane="D11_0" arrivalPos="486.40" arrivalSpeed="12.71" duration="00:01:33" routeLength="973.38" waitingTime="00:00:00" waitingCount="0" stopTime="00:00:00" timeLoss="00:00:18" rerouteNo="0" devices="tripinfo_carflow51.12 routing_carflow51.12" vType="car3" speedFactor="0.96" vaporized=""/>
    <tripinfo id="carflow51.13" depart="00:03:54" departLane="D12_0" departPos="4.10" departSpeed="0.00" departDelay="00:00:000.67" arrival="00:05:18" arrivalLane="D11_0" arrivalPos="486.40" arrivalSpeed="14.14" duration="00:01:24" routeLength="973.38" waitingTime="00:00:00" waitingCount="0" stopTime="00:00:00" timeLoss="00:00:170.32" rerouteNo="0" devices="tripinfo_carflow51.13 routing_carflow51.13" vType="car3" speedFactor="1.07" vaporized=""/>
    <tripinfo id="carflow26.0" depart="00:00:11" departLane="D18_0" departPos="5.10" departSpeed="0.00" departDelay="00:00:11" arrival="00:05:22" arrivalLane="D23_0" arrivalPos="486.40" arrivalSpeed="13.15" duration="00:05:11" routeLength="1964.95" waitingTime="00:02:22" waitingCount="2" stopTime="00:00:00" timeLoss="00:02:560.14" rerouteNo="1" devices="tripinfo_carflow26.0 routing_carflow26.0" vType="car4" speedFactor="1.05" vaporized=""/>
    <tripinfo id="carflow30.0" depart="00:00:10" departLane="D20_0" departPos="6.10" departSpeed="0.00" departDelay="00:00:10" arrival="00:05:22" arrivalLane="D21_0" arrivalPos="486.40" arrivalSpeed="11.27" duration="00:05:12" routeLength="1930.36" waitingTime="00:02:21" waitingCount="1" stopTime="00:00:00" timeLoss="00:02:530.86" rerouteNo="1" devices="tripinfo_carflow30.0 routing_carflow30.0" vType="car2" speedFactor="1.01" vaporized=""/>
    <tripinfo id="carflow20.2" depart="00:01:19" departLane="D8_0" departPos="6.10" departSpeed="0.00" departDelay="00:00:120.33" arrival="00:05:31" arrivalLane="D9_0" arrivalPos="248.50" arrivalSpeed="9.60" duration="00:04:12" routeLength="2476.37" waitingTime="00:00:00" waitingCount="0" stopTime="00:00:00" timeLoss="00:00:390.69" rerouteNo="1" devices="tripinfo_carflow20.2 routing_carflow20.2" vType="car2" speedFactor="0.84" vaporized=""/>
    <tripinfo id="carflow43.0" depart="00:00:00" departLane="D12_0" departPos="4.60" departSpeed="0.00" departDelay="00:00:00" arrival="00:05:36" arrivalLane="D9_0" arrivalPos="248.50" arrivalSpeed="13.55" duration="00:05:36" routeLength="1992.74" waitingTime="00:02:33" waitingCount="2" stopTime="00:00:00" timeLoss="00:03:110.89" rerouteNo="1" devices="tripinfo_carflow43.0 routing_carflow43.0" vType="car" speedFactor="1.00" vaporized=""/>
    <tripinfo id="carflow14.0" depart="00:00:06" departLane="D6_0" departPos="5.10" departSpeed="0.00" departDelay="00:00:06" arrival="00:05:37" arrivalLane="D7_0" arrivalPos="500.00" arrivalSpeed="12.76" duration="00:05:31" routeLength="3959.30" waitingTime="00:00:00" waitingCount="0" stopTime="00:00:00" timeLoss="00:00:460.93" rerouteNo="1" devices="tripinfo_carflow14.0 routing_carflow14.0" vType="car4" speedFactor="1.01" vaporized=""/>
    <tripinfo id="carflow50.1" depart="00:00:37" departLane="D10_0" departPos="6.10" departSpeed="0.00" departDelay="00:00:030.67" arrival="00:05:42" arrivalLane="D9_1" arrivalPos="248.50" arrivalSpeed="14.40" duration="00:05:05" routeLength="971.38" waitingTime="00:03:40" waitingCount="2" stopTime="00:00:00" timeLoss="00:04:060.44" rerouteNo="1" devices="tripinfo_carflow50.1 routing_carflow50.1" vType="car2" speedFactor="1.22" vaporized=""/>
    <tripinfo id="carflow16.0" depart="00:00:12" departLane="D6_0" departPos="5.10" departSpeed="0.00" departDelay="00:00:12" arrival="00:05:43" arrivalLane="D11_1" arrivalPos="486.40" arrivalSpeed="13.06" duration="00:05:31" routeLength="2468.34" waitingTime="00:02:24" waitingCount="4" stopTime="00:00:00" timeLoss="00:02:530.83" rerouteNo="1" devices="tripinfo_carflow16.0 routing_carflow16.0" vType="car4" speedFactor="1.13" vaporized=""/>
    <tripinfo id="carflow51.14" depart="00:04:01" departLane="D12_0" departPos="4.10" departSpeed="0.00" departDelay="00:00:070.67" arrival="00:05:45" arrivalLane="D11_0" arrivalPos="486.40" arrivalSpeed="11.77" duration="00:01:44" routeLength="973.38" waitingTime="00:00:00" waitingCount="0" stopTime="00:00:00" timeLoss="00:00:200.76" rerouteNo="0" devices="tripinfo_carflow51.14 routing_carflow51.14" vType="car3" speedFactor="0.86" vaporized=""/>
    <tripinfo id="carflow51.15" depart="00:04:27" departLane="D12_0" departPos="4.10" departSpeed="0.00" departDelay="00:00:000.34" arrival="00:05:48" arrivalLane="D11_1" arrivalPos="486.40" arrivalSpeed="13.96" duration="00:01:21" routeLength="973.38" waitingTime="00:00:00" waitingCount="0" stopTime="00:00:00" timeLoss="00:00:140.63" rerouteNo="0" devices="tripinfo_carflow51.15 routing_carflow51.15" vType="car3" speedFactor="1.07" vaporized=""/>
    <tripinfo id="carflow33.0" depart="00:00:03" departLane="D22_0" departPos="6.10" departSpeed="0.00" departDelay="00:00:03" arrival="00:05:55" arrivalLane="D15_0" arrivalPos="500.00" arrivalSpeed="12.87" duration="00:05:52" routeLength="2448.63" waitingTime="00:02:22" waitingCount="2" stopTime="00:00:00" timeLoss="00:02:580.60" rerouteNo="1" devices="tripinfo_carflow33.0 routing_carflow33.0" vType="car2" speedFactor="1.02" vaporized=""/>
    <tripinfo id="carflow51.16" depart="00:04:32" departLane="D12_0" departPos="4.10" departSpeed="0.00" departDelay="00:00:050.34" arrival="00:05:55" arrivalLane="D11_0" arrivalPos="486.40" arrivalSpeed="13.17" duration="00:01:23" routeLength="973.38" waitingTime="00:00:00" waitingCount="0" stopTime="00:00:00" timeLoss="00:00:150.70" rerouteNo="0" devices="tripinfo_carflow51.16 routing_carflow51.16" vType="car3" speedFactor="1.06" vaporized=""/>
    <tripinfo id="carflow50.3" depart="00:01:43" departLane="D10_0" departPos="6.10" departSpeed="0.00" departDelay="00:00:03" arrival="00:05:56" arrivalLane="D9_1" arrivalPos="248.50" arrivalSpeed="13.83" duration="00:04:13" routeLength="971.38" waitingTime="00:02:33" waitingCount="2" stopTime="00:00:00" timeLoss="00:03:070.47" rerouteNo="1" devices="tripinfo_carflow50.3 routing_carflow50.3" vType="car2" speedFactor="1.10" vaporized=""/>
    <tripinfo id="carflow50.2" depart="00:01:10" departLane="D10_0" departPos="6.10" departSpeed="0.00" departDelay="00:00:030.33" arrival="00:06:03" arrivalLane="D9_0" arrivalPos="248.50" arrivalSpeed="11.28" duration="00:04:53" routeLength="971.38" waitingTime="00:02:53" waitingCount="4" stopTime="00:00:00" timeLoss="00:03:290.46" rerouteNo="1" devices="tripinfo_carflow50.2 routing_carflow50.2" vType="car2" speedFactor="0.85" vaporized=""/>
    <tripinfo id="carflow50.4" depart="00:02:17" departLane="D10_0" departPos="6.10" departSpeed="0.00" departDelay="00:00:030.67" arrival="00:06:08" arrivalLane="D9_0" arrivalPos="248.50" arrivalSpeed="12.45" duration="00:03:51" routeLength="971.38" waitingTime="00:01:55" waitingCount="3" stopTime="00:00:00" timeLoss="00:02:340.64" rerouteNo="1" devices="tripinfo_carflow50.4 routing_carflow50.4" vType="car2" speedFactor="0.93" vaporized=""/>
    <tripinfo id="carflow14.1" depart="00:00:43" departLane="D6_0" departPos="5.10" departSpeed="0.00" departDelay="00:00:090.67" arrival="00:06:09" arrivalLane="D7_0" arrivalPos="500.00" arrivalSpeed="12.93" duration="00:05:26" routeLength="3959.30" waitingTime="00:00:00" waitingCount="0" stopTime="00:00:00" timeLoss="00:00:530.20" rerouteNo="1" devices="tripinfo_carflow14.1 routing_carflow14.1" vType="car4" speedFactor="1.05" vaporized=""/>
    <tripinfo id="carflow42.0" depart="00:00:00" departLane="D10_0" departPos="6.10" departSpeed="0.00" departDelay="00:00:00" arrival="00:06:15" arrivalLane="D11_1" arrivalPos="486.40" arrivalSpeed="12.24" duration="00:06:15" routeLength="1990.21" waitingTime="00:03:04" waitingCount="4" stopTime="00:00:00" timeLoss="00:03:510.68" rerouteNo="1" devices="tripinfo_carflow42.0 routing_carflow42.0" vType="car2" speedFactor="1.01" vaporized=""/>
    <tripinfo id="carflow42.1" depart="00:00:34" departLane="D10_0" departPos="6.10" departSpeed="0.00" departDelay="00:00:000.67" arrival="00:06:16" arrivalLane="D11_0" arrivalPos="486.40" arrivalSpeed="12.01" duration="00:05:42" routeLength="1990.21" waitingTime="00:02:29" waitingCount="4" stopTime="00:00:00" timeLoss="00:03:120.42" rerouteNo="1" devices="tripinfo_carflow42.1 routing_carflow42.1" vType="car2" speedFactor="0.96" vaporized=""/>
    <tripinfo id="carflow20.4" depart="00:02:26" departLane="D8_0" departPos="6.10" departSpeed="0.00" departDelay="00:00:120.67" arrival="00:06:24" arrivalLane="D9_1" arrivalPos="248.50" arrivalSpeed="13.12" duration="00:03:58" routeLength="2476.37" waitingTime="00:00:08" waitingCount="1" stopTime="00:00:00" timeLoss="00:01:050.32" rerouteNo="1" devices="tripinfo_carflow20.4 routing_carflow20.4" vType="car2" speedFactor="1.04" vaporized=""/>
    <tripinfo id="carflow20.5" depart="00:03:02" departLane="D8_0" departPos="6.10" departSpeed="0.00" departDelay="00:00:150.34" arrival="00:06:26" arrivalLane="D9_2" arrivalPos="248.50" arrivalSpeed="14.22" duration="00:03:24" routeLength="2476.37" waitingTime="00:00:00" waitingCount="0" stopTime="00:00:00" timeLoss="00:00:410.95" rerouteNo="1" devices="tripinfo_carflow20.5 routing_carflow20.5" vType="car2" speedFactor="1.11" vaporized=""/>
    <tripinfo id="carflow20.3" depart="00:01:55" departLane="D8_0" departPos="6.10" departSpeed="0.00" departDelay="00:00:15" arrival="00:06:28" arrivalLane="D9_0" arrivalPos="248.50" arrivalSpeed="10.94" duration="00:04:33" routeLength="2476.37" waitingTime="00:00:15" waitingCount="2" stopTime="00:00:00" timeLoss="00:01:090.51" rerouteNo="1" devices="tripinfo_carflow20.3 routing_carflow20.3" vType="car2" speedFactor="0.88" vaporized=""/>
    <tripinfo id="carflow51.17" depart="00:05:00" departLane="D12_0" departPos="4.10" departSpeed="0.00" departDelay="00:00:00" arrival="00:06:30" arrivalLane="D11_0" arrivalPos="486.40" arrivalSpeed="12.42" duration="00:01:30" routeLength="973.38" waitingTime="00:00:00" waitingCount="0" stopTime="00:00:00" timeLoss="00:00:170.9" rerouteNo="0" devices="tripinfo_carflow51.17 routing_carflow51.17" vType="car3" speedFactor="0.98" vaporized=""/>
    <tripinfo id="carflow51.18" depart="00:05:05" departLane="D12_0" departPos="4.10" departSpeed="0.00" departDelay="00:00:05" arrival="00:06:37" arrivalLane="D11_0" arrivalPos="486.40" arrivalSpeed="11.54" duration="00:01:32" routeLength="973.38" waitingTime="00:00:00" waitingCount="0" stopTime="00:00:00" timeLoss="00:00:180.37" rerouteNo="0" devices="tripinfo_carflow51.18 routing_carflow51.18" vType="car3" speedFactor="0.98" vaporized=""/>
    <tripinfo id="carflow14.2" depart="00:01:17" departLane="D6_0" departPos="5.10" departSpeed="0.00" departDelay="00:00:100.33" arrival="00:06:52" arrivalLane="D7_0" arrivalPos="500.00" arrivalSpeed="12.53" duration="00:05:35" routeLength="3959.30" waitingTime="00:00:00" waitingCount="0" stopTime="00:00:00" timeLoss="00:00:530.1" rerouteNo="1" devices="tripinfo_carflow14.2 routing_carflow14.2" vType="car4" speedFactor="1.02" vaporized=""/>
    <tripinfo id="carflow14.3" depart="00:01:50" departLane="D6_0" departPos="5.10" departSpeed="0.00" departDelay="00:00:10" arrival="00:06:58" arrivalLane="D7_0" arrivalPos="500.00" arrivalSpeed="13.65" duration="00:05:08" routeLength="3959.30" waitingTime="00:00:00" waitingCount="0" stopTime="00:00:00" timeLoss="00:00:440.70" rerouteNo="1" devices="tripinfo_carflow14.3 routing_carflow14.3" vType="car4" speedFactor="1.09" vaporized=""/>
    <tripinfo id="carflow51.19" depart="00:05:34" departLane="D12_0" departPos="4.10" departSpeed="0.00" departDelay="00:00:000.67" arrival="00:07:03" arrivalLane="D11_0" arrivalPos="486.40" arrivalSpeed="12.83" duration="00:01:29" routeLength="973.38" waitingTime="00:00:00" waitingCount="0" stopTime="00:00:00" timeLoss="00:00:180.91" rerouteNo="0" devices="tripinfo_carflow51.19 routing_carflow51.19" vType="car3" speedFactor="1.01" vaporized=""/>
    <tripinfo id="carflow51.20" depart="00:05:37" departLane="D12_0" departPos="4.10" departSpeed="0.00" departDelay="00:00:030.67" arrival="00:07:08" arrivalLane="D11_0" arrivalPos="486.40" arrivalSpeed="14.30" duration="00:01:31" routeLength="973.38" waitingTime="00:00:00" waitingCount="0" stopTime="00:00:00" timeLoss="00:00:220.39" rerouteNo="0" devices="tripinfo_carflow51.20 routing_carflow51.20" vType="car3" speedFactor="1.04" vaporized=""/>
    <tripinfo id="carflow14.4" depart="00:02:23" departLane="D6_0" departPos="5.10" departSpeed="0.00" departDelay="00:00:090.67" arrival="00:07:10" arrivalLane="D7_0" arrivalPos="500.00" arrivalSpeed="13.36" duration="00:04:47" routeLength="3959.30" waitingTime="00:00:01" waitingCount="1" stopTime="00:00:00" timeLoss="00:00:450.60" rerouteNo="1" devices="tripinfo_carflow14.4 routing_carflow14.4" vType="car4" speedFactor="1.19" vaporized=""/>
    <tripinfo id="carflow51.21" depart="00:06:07" departLane="D12_0" departPos="4.10" departSpeed="0.00" departDelay="00:00:000.34" arrival="00:07:25" arrivalLane="D11_1" arrivalPos="486.40" arrivalSpeed="15.41" duration="00:01:18" routeLength="973.38" waitingTime="00:00:00" waitingCount="0" stopTime="00:00:00" timeLoss="00:00:140.98" rerouteNo="0" devices="tripinfo_carflow51.21 routing_carflow51.21" vType="car3" speedFactor="1.15" vaporized=""/>
    <tripinfo id="carflow20.6" depart="00:03:34" departLane="D8_0" departPos="6.10" departSpeed="0.00" departDelay="00:00:14" arrival="00:07:29" arrivalLane="D9_0" arrivalPos="248.50" arrivalSpeed="10.42" duration="00:03:55" routeLength="2476.37" waitingTime="00:00:00" waitingCount="0" stopTime="00:00:00" timeLoss="00:00:390.41" rerouteNo="1" devices="tripinfo_carflow20.6 routing_carflow20.6" vType="car2" speedFactor="0.92" vaporized=""/>
    <tripinfo id="carflow42.2" depart="00:01:07" departLane="D10_0" departPos="6.10" departSpeed="0.00" departDelay="00:00:000.33" arrival="00:07:44" arrivalLane="D11_0" arrivalPos="486.40" arrivalSpeed="13.19" duration="00:06:37" routeLength="2017.41" waitingTime="00:03:25" waitingCount="7" stopTime="00:00:00" timeLoss="00:04:230.64" rerouteNo="1" devices="tripinfo_carflow42.2 routing_carflow42.2" vType="car2" speedFactor="1.10" vaporized=""/>
    <tripinfo id="carflow24.0" depart="00:00:05" departLane="D18_0" departPos="5.10" departSpeed="0.00" departDelay="00:00:05" arrival="00:07:45" arrivalLane="D19_0" arrivalPos="486.40" arrivalSpeed="10.58" duration="00:07:40" routeLength="1940.50" waitingTime="00:04:42" waitingCount="2" stopTime="00:00:00" timeLoss="00:05:160.5" rerouteNo="1" devices="tripinfo_carflow24.0 routing_carflow24.0" vType="car4" speedFactor="0.97" vaporized=""/>
    <tripinfo id="carflow26.1" depart="00:00:34" departLane="D18_0" departPos="5.10" departSpeed="0.00" departDelay="00:00:000.67" arrival="00:07:46" arrivalLane="D23_0" arrivalPos="486.40" arrivalSpeed="14.40" duration="00:07:12" routeLength="1964.95" waitingTime="00:04:28" waitingCount="3" stopTime="00:00:00" timeLoss="00:04:550.88" rerouteNo="1" devices="tripinfo_carflow26.1 routing_carflow26.1" vType="car4" speedFactor="1.04" vaporized=""/>
    <tripinfo id="carflow42.4" depart="00:02:14" departLane="D10_0" departPos="6.10" departSpeed="0.00" departDelay="00:00:000.67" arrival="00:07:47" arrivalLane="D11_1" arrivalPos="486.40" arrivalSpeed="13.83" duration="00:05:33" routeLength="2013.59" waitingTime="00:02:06" waitingCount="5" stopTime="00:00:00" timeLoss="00:03:070.84" rerouteNo="1" devices="tripinfo_carflow42.4 routing_carflow42.4" vType="car2" speedFactor="1.01" vaporized=""/>
    <tripinfo id="carflow45.1" depart="00:00:34" departLane="D16_0" departPos="4.60" departSpeed="0.00" departDelay="00:00:000.67" arrival="00:07:49" arrivalLane="D13_0" arrivalPos="500.00" arrivalSpeed="14.61" duration="00:07:15" routeLength="3991.35" waitingTime="00:02:33" waitingCount="3" stopTime="00:00:00" timeLoss="00:03:210.2" rerouteNo="1" devices="tripinfo_carflow45.1 routing_carflow45.1" vType="car" speedFactor="1.23" vaporized=""/>
    <tripinfo id="carflow51.22" depart="00:06:16" departLane="D12_0" departPos="4.10" departSpeed="0.00" departDelay="00:00:090.34" arrival="00:07:49" arrivalLane="D11_2" arrivalPos="486.40" arrivalSpeed="14.02" duration="00:01:33" routeLength="973.38" waitingTime="00:00:02" waitingCount="1" stopTime="00:00:00" timeLoss="00:00:230.77" rerouteNo="0" devices="tripinfo_carflow51.22 routing_carflow51.22" vType="car3" speedFactor="1.03" vaporized=""/>
    <tripinfo id="carflow42.5" depart="00:02:47" departLane="D10_0" departPos="6.10" departSpeed="0.00" departDelay="00:00:000.34" arrival="00:07:56" arrivalLane="D11_0" arrivalPos="486.40" arrivalSpeed="11.14" duration="00:05:09" routeLength="2017.41" waitingTime="00:01:43" waitingCount="7" stopTime="00:00:00" timeLoss="00:02:470.35" rerouteNo="1" devices="tripinfo_carflow42.5 routing_carflow42.5" vType="car2" speedFactor="1.04" vaporized=""/>
    <tripinfo id="carflow42.3" depart="00:01:40" departLane="D10_0" departPos="6.10" departSpeed="0.00" departDelay="00:00:00" arrival="00:07:58" arrivalLane="D11_0" arrivalPos="486.40" arrivalSpeed="12.45" duration="00:06:18" routeLength="2017.41" waitingTime="00:02:38" waitingCount="9" stopTime="00:00:00" timeLoss="00:03:440.26" rerouteNo="1" devices="tripinfo_carflow42.3 routing_carflow42.3" vType="car2" speedFactor="0.95" vaporized=""/>
    <tripinfo id="carflow42.7" depart="00:03:54" departLane="D10_0" departPos="6.10" departSpeed="0.00" departDelay="00:00:000.67" arrival="00:07:59" arrivalLane="D11_2" arrivalPos="486.40" arrivalSpeed="14.42" duration="00:04:05" routeLength="2013.59" waitingTime="00:00:33" waitingCount="3" stopTime="00:00:00" timeLoss="00:01:490.88" rerouteNo="1" devices="tripinfo_carflow42.7 routing_carflow42.7" vType="car2" speedFactor="1.08" vaporized=""/>
    <tripinfo id="carflow23.0" depart="00:00:04" departLane="D18_0" departPos="6.10" departSpeed="0.00" departDelay="00:00:04" arrival="00:08:00" arrivalLane="D15_0" arrivalPos="500.00" arrivalSpeed="12.35" duration="00:07:56" routeLength="3448.52" waitingTime="00:02:21" waitingCount="1" stopTime="00:00:00" timeLoss="00:03:190.52" rerouteNo="1" devices="tripinfo_carflow23.0 routing_carflow23.0" vType="car2" speedFactor="0.90" vaporized=""/>
    <tripinfo id="carflow8.1" depart="00:00:38" departLane="D4_0" departPos="4.10" departSpeed="0.00" departDelay="00:00:040.67" arrival="00:08:04" arrivalLane="D5_0" arrivalPos="500.00" arrivalSpeed="11.92" duration="00:07:26" routeLength="3969.44" waitingTime="00:02:21" waitingCount="1" stopTime="00:00:00" timeLoss="00:03:030.34" rerouteNo="1" devices="tripinfo_carflow8.1 routing_carflow8.1" vType="car3" speedFactor="1.09" vaporized=""/>
    <tripinfo id="carflow42.8" depart="00:04:27" departLane="D10_0" departPos="6.10" departSpeed="0.00" departDelay="00:00:000.34" arrival="00:08:05" arrivalLane="D11_0" arrivalPos="486.40" arrivalSpeed="11.28" duration="00:03:38" routeLength="2013.59" waitingTime="00:00:02" waitingCount="1" stopTime="00:00:00" timeLoss="00:01:110.65" rerouteNo="1" devices="tripinfo_carflow42.8 routing_carflow42.8" vType="car2" speedFactor="1.00" vaporized=""/>
    <tripinfo id="carflow51.23" depart="00:06:40" departLane="D12_0" departPos="4.10" departSpeed="0.00" departDelay="00:00:00" arrival="00:08:05" arrivalLane="D11_1" arrivalPos="486.40" arrivalSpeed="13.38" duration="00:01:25" routeLength="973.38" waitingTime="00:00:00" waitingCount="0" stopTime="00:00:00" timeLoss="00:00:200.31" rerouteNo="0" devices="tripinfo_carflow51.23 routing_carflow51.23" vType="car3" speedFactor="1.10" vaporized=""/>
    <tripinfo id="carflow42.6" depart="00:03:20" departLane="D10_0" departPos="6.10" departSpeed="0.00" departDelay="00:00:00" arrival="00:08:07" arrivalLane="D11_0" arrivalPos="486.40" arrivalSpeed="11.91" duration="00:04:47" routeLength="2017.41" waitingTime="00:01:08" waitingCount="6" stopTime="00:00:00" timeLoss="00:02:260.30" rerouteNo="1" devices="tripinfo_carflow42.6 routing_carflow42.6" vType="car2" speedFactor="1.04" vaporized=""/>
    <tripinfo id="carflow26.2" depart="00:00:51" departLane="D18_0" departPos="5.10" departSpeed="0.00" departDelay="00:00:170.67" arrival="00:08:16" arrivalLane="D23_0" arrivalPos="486.40" arrivalSpeed="12.70" duration="00:07:25" routeLength="1992.09" waitingTime="00:04:25" waitingCount="6" stopTime="00:00:00" timeLoss="00:05:100.11" rerouteNo="1" devices="tripinfo_carflow26.2 routing_carflow26.2" vType="car4" speedFactor="1.08" vaporized=""/>