<?xml version="1.0" encoding="UTF-8"?>

<!-- generated on 2021年02月01日 星期一 09时24分28秒 by Eclipse SUMO GUI Version 1.8.0
<configuration xmlns:xsi="http://www.w3.org/2001/XMLSchema-instance" xsi:noNamespaceSchemaLocation="http://sumo.dlr.de/xsd/sumoConfiguration.xsd">

    <input>
        <net-file value="./config/demo.net.xml"/>
        <route-files value="./config/demo.rou30000.xml"/>
        <additional-files value="./config/demo.detector.xml"/>
    </input>

    <output>
        <human-readable-time value="true"/>
        <summary-output value="./config/demo.summary.xml"/>
        <tripinfo-output value="./config/demo.tripinfo.xml"/>
        <statistic-output value="./config/demo.statistic.xml"/>
    </output>

    <processing>
        <time-to-teleport value="140"/>
        <waiting-time-memory value="50"/>
    </processing>

    <report>
        <no-warnings value="true"/>
        <duration-log.disable value="true"/>
        <no-step-log value="true"/>
    </report>

    <traci_server>
        <remote-port value="8000"/>
    </traci_server>

    <random_number>
        <seed value="0"/>
    </random_number>

    <gui_only>
        <gui-settings-file value="./config/demo.settings.xml"/>
        <quit-on-end value="true"/>
        <start value="true"/>
    </gui_only>

</configuration>
-->

<tripinfos xmlns:xsi="http://www.w3.org/2001/XMLSchema-instance" xsi:noNamespaceSchemaLocation="http://sumo.dlr.de/xsd/tripinfo_file.xsd">
    <tripinfo id="carflow51.1" depart="00:00:38" departLane="D12_0" departPos="4.10" departSpeed="0.00" departDelay="00:00:040.67" arrival="00:02:17" arrivalLane="D11_1" arrivalPos="486.40" arrivalSpeed="15.01" duration="00:01:39" routeLength="973.38" waitingTime="00:00:19" waitingCount="1" stopTime="00:00:00" timeLoss="00:00:410.33" rerouteNo="0" devices="tripinfo_carflow51.1 routing_carflow51.1" vType="car3" speedFactor="1.24" vaporized=""/>
    <tripinfo id="carflow51.0" depart="00:00:04" departLane="D12_0" departPos="4.10" departSpeed="0.00" departDelay="00:00:04" arrival="00:02:23" arrivalLane="D11_0" arrivalPos="486.40" arrivalSpeed="10.29" duration="00:02:19" routeLength="973.38" waitingTime="00:00:37" waitingCount="2" stopTime="00:00:00" timeLoss="00:01:000.35" rerouteNo="0" devices="tripinfo_carflow51.0 routing_carflow51.0" vType="car3" speedFactor="0.90" vaporized=""/>
    <tripinfo id="carflow51.2" depart="00:01:10" departLane="D12_0" departPos="4.10" departSpeed="0.00" departDelay="00:00:030.33" arrival="00:02:45" arrivalLane="D11_0" arrivalPos="486.40" arrivalSpeed="11.03" duration="00:01:35" routeLength="973.38" waitingTime="00:00:00" waitingCount="0" stopTime="00:00:00" timeLoss="00:00:200.7" rerouteNo="0" devices="tripinfo_carflow51.2 routing_carflow51.2" vType="car3" speedFactor="0.95" vaporized=""/>
    <tripinfo id="carflow22.0" depart="00:00:00" departLane="D18_0" departPos="4.10" departSpeed="0.00" departDelay="00:00:00" arrival="00:02:59" arrivalLane="D13_0" arrivalPos="500.00" arrivalSpeed="15.36" duration="00:02:59" routeLength="2477.83" waitingTime="00:00:00" waitingCount="0" stopTime="00:00:00" timeLoss="00:00:260.82" rerouteNo="1" devices="tripinfo_carflow22.0 routing_carflow22.0" vType="car3" speedFactor="1.18" vaporized=""/>
    <tripinfo id="carflow29.1" depart="00:00:39" departLane="D20_0" departPos="5.10" departSpeed="0.00" departDelay="00:00:050.67" arrival="00:03:01" arrivalLane="D17_0" arrivalPos="486.40" arrivalSpeed="16.22" duration="00:02:22" routeLength="1994.90" waitingTime="00:00:00" waitingCount="0" stopTime="00:00:00" timeLoss="00:00:200.37" rerouteNo="1" devices="tripinfo_carflow29.1 routing_carflow29.1" vType="car4" speedFactor="1.18" vaporized=""/>
    <tripinfo id="carflow36.0" depart="00:00:13" departLane="D22_0" departPos="5.10" departSpeed="0.00" departDelay="00:00:13" arrival="00:03:07" arrivalLane="D23_0" arrivalPos="486.40" arrivalSpeed="13.54" duration="00:02:54" routeLength="1994.90" waitingTime="00:00:01" waitingCount="1" stopTime="00:00:00" timeLoss="00:00:340.10" rerouteNo="1" devices="tripinfo_carflow36.0 routing_carflow36.0" vType="car4" speedFactor="1.03" vaporized=""/>
    <tripinfo id="carflow11.0" depart="00:00:09" departLane="D4_0" departPos="4.10" departSpeed="0.00" departDelay="00:00:09" arrival="00:03:08" arrivalLane="D11_0" arrivalPos="486.40" arrivalSpeed="14.94" duration="00:02:59" routeLength="2478.37" waitingTime="00:00:00" waitingCount="0" stopTime="00:00:00" timeLoss="00:00:370.30" rerouteNo="1" devices="tripinfo_carflow11.0 routing_carflow11.0" vType="car3" speedFactor="1.27" vaporized=""/>
    <tripinfo id="carflow29.0" depart="00:00:06" departLane="D20_0" departPos="5.10" departSpeed="0.00" departDelay="00:00:06" arrival="00:03:11" arrivalLane="D17_0" arrivalPos="486.40" arrivalSpeed="13.09" duration="00:03:05" routeLength="1994.90" waitingTime="00:00:10" waitingCount="3" stopTime="00:00:00" timeLoss="00:00:430.90" rerouteNo="1" devices="tripinfo_carflow29.0 routing_carflow29.0" vType="car4" speedFactor="1.02" vaporized=""/>
    <tripinfo id="carflow36.1" depart="00:00:45" departLane="D22_0" departPos="5.10" departSpeed="0.00" departDelay="00:00:110.67" arrival="00:03:15" arrivalLane="D23_0" arrivalPos="486.40" arrivalSpeed="11.97" duration="00:02:30" routeLength="1994.90" waitingTime="00:00:00" waitingCount="0" stopTime="00:00:00" timeLoss="00:00:190.37" rerouteNo="1" devices="tripinfo_carflow36.1 routing_carflow36.1" vType="car4" speedFactor="1.10" vaporized=""/>
    <tripinfo id="carflow24.1" depart="00:00:40" departLane="D18_0" departPos="5.10" departSpeed="0.00" departDelay="00:00:060.67" arrival="00:03:17" arrivalLane="D19_0" arrivalPos="486.40" arrivalSpeed="12.96" duration="00:02:37" routeLength="1994.90" waitingTime="00:00:00" waitingCount="0" stopTime="00:00:00" timeLoss="00:00:190.98" rerouteNo="1" devices="tripinfo_carflow24.1 routing_carflow24.1" vType="car4" speedFactor="1.05" vaporized=""/>
    <tripinfo id="carflow24.0" depart="00:00:05" departLane="D18_0" departPos="5.10" departSpeed="0.00" departDelay="00:00:05" arrival="00:03:19" arrivalLane="D19_1" arrivalPos="486.40" arrivalSpeed="13.62" duration="00:03:14" routeLength="1994.90" waitingTime="00:00:16" waitingCount="2" stopTime="00:00:00" timeLoss="00:00:500.99" rerouteNo="1" devices="tripinfo_carflow24.0 routing_carflow24.0" vType="car4" speedFactor="1.01" vaporized=""/>
    <tripinfo id="carflow51.3" depart="00:01:43" departLane="D12_0" departPos="4.10" departSpeed="0.00" departDelay="00:00:03" arrival="00:03:19" arrivalLane="D11_0" arrivalPos="486.40" arrivalSpeed="10.13" duration="00:01:36" routeLength="973.38" waitingTime="00:00:05" waitingCount="1" stopTime="00:00:00" timeLoss="00:00:230.31" rerouteNo="0" devices="tripinfo_carflow51.3 routing_carflow51.3" vType="car3" speedFactor="0.98" vaporized=""/>
    <tripinfo id="carflow30.0" depart="00:00:09" departLane="D20_0" departPos="6.10" departSpeed="0.00" departDelay="00:00:09" arrival="00:03:31" arrivalLane="D21_0" arrivalPos="486.40" arrivalSpeed="12.87" duration="00:03:22" routeLength="1957.56" waitingTime="00:00:14" waitingCount="4" stopTime="00:00:00" timeLoss="00:01:030.72" rerouteNo="1" devices="tripinfo_carflow30.0 routing_carflow30.0" vType="car2" speedFactor="1.04" vaporized=""/>
    <tripinfo id="carflow33.0" depart="00:00:04" departLane="D22_0" departPos="6.10" departSpeed="0.00" departDelay="00:00:04" arrival="00:03:34" arrivalLane="D15_0" arrivalPos="500.00" arrivalSpeed="14.03" duration="00:03:30" routeLength="2475.83" waitingTime="00:00:16" waitingCount="3" stopTime="00:00:00" timeLoss="00:00:590.16" rerouteNo="1" devices="tripinfo_carflow33.0 routing_carflow33.0" vType="car2" speedFactor="1.19" vaporized=""/>
    <tripinfo id="carflow27.1" depart="00:00:34" departLane="D20_0" departPos="4.10" departSpeed="0.00" departDelay="00:00:000.67" arrival="00:03:41" arrivalLane="D13_0" arrivalPos="500.00" arrivalSpeed="15.64" duration="00:03:07" routeLength="2495.94" waitingTime="00:00:04" waitingCount="1" stopTime="00:00:00" timeLoss="00:00:380.55" rerouteNo="1" devices="tripinfo_carflow27.1 routing_carflow27.1" vType="car3" speedFactor="1.22" vaporized=""/>
    <tripinfo id="carflow27.0" depart="00:00:00" departLane="D20_0" departPos="4.10" departSpeed="0.00" departDelay="00:00:00" arrival="00:03:42" arrivalLane="D13_1" arrivalPos="500.00" arrivalSpeed="12.09" duration="00:03:42" routeLength="2495.94" waitingTime="00:00:19" waitingCount="2" stopTime="00:00:00" timeLoss="00:00:550.85" rerouteNo="1" devices="tripinfo_carflow27.0 routing_carflow27.0" vType="car3" speedFactor="1.09" vaporized=""/>
    <tripinfo id="carflow39.0" depart="00:00:06" departLane="D24_0" departPos="5.10" departSpeed="0.00" departDelay="00:00:06" arrival="00:03:44" arrivalLane="D17_0" arrivalPos="486.40" arrivalSpeed="11.73" duration="00:03:38" routeLength="1958.50" waitingTime="00:00:05" waitingCount="1" stopTime="00:00:00" timeLoss="00:00:550.91" rerouteNo="1" devices="tripinfo_carflow39.0 routing_carflow39.0" vType="car4" speedFactor="0.88" vaporized=""/>
    <tripinfo id="carflow41.1" depart="00:00:44" departLane="D24_0" departPos="5.10" departSpeed="0.00" departDelay="00:00:100.67" arrival="00:03:53" arrivalLane="D21_0" arrivalPos="486.40" arrivalSpeed="11.74" duration="00:03:09" routeLength="1994.90" waitingTime="00:00:00" waitingCount="0" stopTime="00:00:00" timeLoss="00:00:320.63" rerouteNo="1" devices="tripinfo_carflow41.1 routing_carflow41.1" vType="car4" speedFactor="0.92" vaporized=""/>
    <tripinfo id="carflow22.1" depart="00:00:34" departLane="D18_0" departPos="4.10" departSpeed="0.00" departDelay="00:00:000.67" arrival="00:03:54" arrivalLane="D13_0" arrivalPos="500.00" arrivalSpeed="11.62" duration="00:03:20" routeLength="2477.83" waitingTime="00:00:00" waitingCount="0" stopTime="00:00:00" timeLoss="00:00:280.35" rerouteNo="1" devices="tripinfo_carflow22.1 routing_carflow22.1" vType="car3" speedFactor="1.05" vaporized=""/>
    <tripinfo id="carflow41.2" depart="00:01:20" departLane="D24_0" departPos="5.10" departSpeed="0.00" departDelay="00:00:130.33" arrival="00:03:56" arrivalLane="D21_1" arrivalPos="486.40" arrivalSpeed="11.80" duration="00:02:36" routeLength="1994.90" waitingTime="00:00:00" waitingCount="0" stopTime="00:00:00" timeLoss="00:00:210.22" rerouteNo="1" devices="tripinfo_carflow41.2 routing_carflow41.2" vType="car4" speedFactor="1.07" vaporized=""/>
    <tripinfo id="carflow50.0" depart="00:00:03" departLane="D10_0" departPos="6.10" departSpeed="0.00" departDelay="00:00:03" arrival="00:03:57" arrivalLane="D9_0" arrivalPos="248.50" arrivalSpeed="11.74" duration="00:03:54" routeLength="971.38" waitingTime="00:02:09" waitingCount="1" stopTime="00:00:00" timeLoss="00:02:310.52" rerouteNo="1" devices="tripinfo_carflow50.0 routing_carflow50.0" vType="car2" speedFactor="0.86" vaporized=""/>
    <tripinfo id="carflow35.0" depart="00:00:11" departLane="D22_0" departPos="6.10" departSpeed="0.00" departDelay="00:00:11" arrival="00:03:58" arrivalLane="D19_0" arrivalPos="486.40" arrivalSpeed="11.19" duration="00:03:47" routeLength="1991.15" waitingTime="00:00:27" waitingCount="5" stopTime="00:00:00" timeLoss="00:01:200.12" rerouteNo="1" devices="tripinfo_carflow35.0 routing_carflow35.0" vType="car2" speedFactor="0.99" vaporized=""/>
    <tripinfo id="carflow41.0" depart="00:00:11" departLane="D24_0" departPos="5.10" departSpeed="0.00" departDelay="00:00:11" arrival="00:03:59" arrivalLane="D21_0" arrivalPos="486.40" arrivalSpeed="10.78" duration="00:03:48" routeLength="1994.90" waitingTime="00:00:14" waitingCount="2" stopTime="00:00:00" timeLoss="00:00:570.16" rerouteNo="1" devices="tripinfo_carflow41.0 routing_carflow41.0" vType="car4" speedFactor="0.84" vaporized=""/>
    <tripinfo id="carflow38.0" depart="00:00:03" departLane="D24_0" departPos="6.10" departSpeed="0.00" departDelay="00:00:03" arrival="00:04:00" arrivalLane="D15_0" arrivalPos="500.00" arrivalSpeed="11.27" duration="00:03:57" routeLength="2493.94" waitingTime="00:00:24" waitingCount="4" stopTime="00:00:00" timeLoss="00:01:050.31" rerouteNo="1" devices="tripinfo_carflow38.0 routing_carflow38.0" vType="car2" speedFactor="1.05" vaporized=""/>
    <tripinfo id="carflow50.1" depart="00:00:37" departLane="D10_0" departPos="6.10" departSpeed="0.00" departDelay="00:00:030.67" arrival="00:04:00" arrivalLane="D9_0" arrivalPos="248.50" arrivalSpeed="10.79" duration="00:03:23" routeLength="971.38" waitingTime="00:01:34" waitingCount="1" stopTime="00:00:00" timeLoss="00:02:020.4" rerouteNo="1" devices="tripinfo_carflow50.1 routing_carflow50.1" vType="car2" speedFactor="0.88" vaporized=""/>
    <tripinfo id="carflow30.1" depart="00:00:43" departLane="D20_0" departPos="6.10" departSpeed="0.00" departDelay="00:00:090.67" arrival="00:04:01" arrivalLane="D21_1" arrivalPos="486.40" arrivalSpeed="9.18" duration="00:03:18" routeLength="1957.56" waitingTime="00:00:00" waitingCount="0" stopTime="00:00:00" timeLoss="00:00:380.88" rerouteNo="1" devices="tripinfo_carflow30.1 routing_carflow30.1" vType="car2" speedFactor="0.90" vaporized=""/>
    <tripinfo id="carflow35.1" depart="00:00:43" departLane="D22_0" departPos="6.10" departSpeed="0.00" departDelay="00:00:090.67" arrival="00:04:04" arrivalLane="D19_0" arrivalPos="486.40" arrivalSpeed="13.42" duration="00:03:21" routeLength="1991.15" waitingTime="00:00:11" waitingCount="3" stopTime="00:00:00" timeLoss="00:00:590.42" rerouteNo="1" devices="tripinfo_carflow35.1 routing_carflow35.1" vType="car2" speedFactor="1.02" vaporized=""/>
    <tripinfo id="carflow16.1" depart="00:00:46" departLane="D6_0" departPos="5.10" departSpeed="0.00" departDelay="00:00:120.67" arrival="00:04:07" arrivalLane="D11_1" arrivalPos="486.40" arrivalSpeed="15.89" duration="00:03:21" routeLength="2495.48" waitingTime="00:00:00" waitingCount="0" stopTime="00:00:00" timeLoss="00:00:470.93" rerouteNo="1" devices="tripinfo_carflow16.1 routing_carflow16.1" vType="car4" speedFactor="1.18" vaporized=""/>
    <tripinfo id="carflow16.0" depart="00:00:13" departLane="D6_0" departPos="5.10" departSpeed="0.00" departDelay="00:00:13" arrival="00:04:08" arrivalLane="D11_0" arrivalPos="486.40" arrivalSpeed="14.08" duration="00:03:55" routeLength="2495.48" waitingTime="00:00:17" waitingCount="1" stopTime="00:00:00" timeLoss="00:01:000.80" rerouteNo="1" devices="tripinfo_carflow16.0 routing_carflow16.0" vType="car4" speedFactor="1.04" vaporized=""/>
    <tripinfo id="carflow50.3" depart="00:01:44" departLane="D10_0" departPos="6.10" departSpeed="0.00" departDelay="00:00:04" arrival="00:04:08" arrivalLane="D9_1" arrivalPos="248.50" arrivalSpeed="10.82" duration="00:02:24" routeLength="971.38" waitingTime="00:00:35" waitingCount="2" stopTime="00:00:00" timeLoss="00:01:080.56" rerouteNo="1" devices="tripinfo_carflow50.3 routing_carflow50.3" vType="car2" speedFactor="0.94" vaporized=""/>
    <tripinfo id="carflow50.4" depart="00:02:17" departLane="D10_0" departPos="6.10" departSpeed="0.00" departDelay="00:00:030.67" arrival="00:04:08" arrivalLane="D9_2" arrivalPos="248.50" arrivalSpeed="13.84" duration="00:01:51" routeLength="971.38" waitingTime="00:00:10" waitingCount="2" stopTime="00:00:00" timeLoss="00:00:450.67" rerouteNo="1" devices="tripinfo_carflow50.4 routing_carflow50.4" vType="car2" speedFactor="1.10" vaporized=""/>
    <tripinfo id="carflow50.2" depart="00:01:10" departLane="D10_0" departPos="6.10" departSpeed="0.00" departDelay="00:00:030.33" arrival="00:04:09" arrivalLane="D9_0" arrivalPos="248.50" arrivalSpeed="8.43" duration="00:02:59" routeLength="971.38" waitingTime="00:01:04" waitingCount="2" stopTime="00:00:00" timeLoss="00:01:320.8" rerouteNo="1" devices="tripinfo_carflow50.2 routing_carflow50.2" vType="car2" speedFactor="0.81" vaporized=""/>
    <tripinfo id="carflow38.1" depart="00:00:37" departLane="D24_0" departPos="6.10" departSpeed="0.00" departDelay="00:00:030.67" arrival="00:04:12" arrivalLane="D15_0" arrivalPos="500.00" arrivalSpeed="12.88" duration="00:03:35" routeLength="2493.94" waitingTime="00:00:02" waitingCount="1" stopTime="00:00:00" timeLoss="00:00:400.8" rerouteNo="1" devices="tripinfo_carflow38.1 routing_carflow38.1" vType="car2" speedFactor="1.03" vaporized=""/>
    <tripinfo id="carflow39.2" depart="00:01:14" departLane="D24_0" departPos="5.10" departSpeed="0.00" departDelay="00:00:070.33" arrival="00:04:15" arrivalLane="D17_0" arrivalPos="486.40" arrivalSpeed="10.36" duration="00:03:01" routeLength="1958.50" waitingTime="00:00:00" waitingCount="0" stopTime="00:00:00" timeLoss="00:00:330.79" rerouteNo="1" devices="tripinfo_carflow39.2 routing_carflow39.2" vType="car4" speedFactor="0.97" vaporized=""/>
    <tripinfo id="carflow24.2" depart="00:01:16" departLane="D18_0" departPos="5.10" departSpeed="0.00" departDelay="00:00:090.33" arrival="00:04:21" arrivalLane="D19_0" arrivalPos="486.40" arrivalSpeed="11.30" duration="00:03:05" routeLength="1994.90" waitingTime="00:00:02" waitingCount="1" stopTime="00:00:00" timeLoss="00:00:340.93" rerouteNo="1" devices="tripinfo_carflow24.2 routing_carflow24.2" vType="car4" speedFactor="0.96" vaporized=""/>
    <tripinfo id="carflow39.1" depart="00:00:39" departLane="D24_0" departPos="5.10" departSpeed="0.00" departDelay="00:00:050.67" arrival="00:04:22" arrivalLane="D17_0" arrivalPos="486.40" arrivalSpeed="9.28" duration="00:03:43" routeLength="1958.50" waitingTime="00:00:00" waitingCount="0" stopTime="00:00:00" timeLoss="00:00:440.46" rerouteNo="1" devices="tripinfo_carflow39.1 routing_carflow39.1" vType="car4" speedFactor="0.80" vaporized=""/>
    <tripinfo id="carflow26.0" depart="00:00:10" departLane="D18_0" departPos="5.10" departSpeed="0.00" departDelay="00:00:10" arrival="00:04:23" arrivalLane="D23_0" arrivalPos="486.40" arrivalSpeed="10.91" duration="00:04:13" routeLength="1992.09" waitingTime="00:01:03" waitingCount="1" stopTime="00:00:00" timeLoss="00:01:380.70" rerouteNo="1" devices="tripinfo_carflow26.0 routing_carflow26.0" vType="car4" speedFactor="0.94" vaporized=""/>
    <tripinfo id="carflow38.2" depart="00:01:11" departLane="D24_0" departPos="6.10" departSpeed="0.00" departDelay="00:00:040.33" arrival="00:04:23" arrivalLane="D15_1" arrivalPos="500.00" arrivalSpeed="15.37" duration="00:03:12" routeLength="2493.94" waitingTime="00:00:01" waitingCount="1" stopTime="00:00:00" timeLoss="00:00:340.9" rerouteNo="1" devices="tripinfo_carflow38.2 routing_carflow38.2" vType="car2" speedFactor="1.14" vaporized=""/>
    <tripinfo id="carflow26.2" depart="00:01:23" departLane="D18_0" departPos="5.10" departSpeed="0.00" departDelay="00:00:160.33" arrival="00:04:25" arrivalLane="D23_1" arrivalPos="486.40" arrivalSpeed="12.78" duration="00:03:02" routeLength="1992.09" waitingTime="00:00:04" waitingCount="2" stopTime="00:00:00" timeLoss="00:00:400.34" rerouteNo="1" devices="tripinfo_carflow26.2 routing_carflow26.2" vType="car4" speedFactor="1.02" vaporized=""/>
    <tripinfo id="carflow26.1" depart="00:00:46" departLane="D18_0" departPos="5.10" departSpeed="0.00" departDelay="00:00:120.67" arrival="00:04:27" arrivalLane="D23_0" arrivalPos="486.40" arrivalSpeed="11.50" duration="00:03:41" routeLength="1992.09" waitingTime="00:00:17" waitingCount="2" stopTime="00:00:00" timeLoss="00:00:560.68" rerouteNo="1" devices="tripinfo_carflow26.1 routing_carflow26.1" vType="car4" speedFactor="0.88" vaporized=""/>
    <tripinfo id="carflow33.1" depart="00:00:37" departLane="D22_0" departPos="6.10" departSpeed="0.00" departDelay="00:00:030.67" arrival="00:04:27" arrivalLane="D15_0" arrivalPos="500.00" arrivalSpeed="10.26" duration="00:03:50" routeLength="2475.83" waitingTime="00:00:00" waitingCount="0" stopTime="00:00:00" timeLoss="00:00:350.50" rerouteNo="1" devices="tripinfo_carflow33.1 routing_carflow33.1" vType="car2" speedFactor="0.92" vaporized=""/>
    <tripinfo id="carflow20.0" depart="00:00:09" departLane="D8_0" departPos="6.10" departSpeed="0.00" departDelay="00:00:09" arrival="00:04:30" arrivalLane="D9_0" arrivalPos="248.50" arrivalSpeed="15.19" duration="00:04:21" routeLength="2476.37" waitingTime="00:00:54" waitingCount="1" stopTime="00:00:00" timeLoss="00:01:380.65" rerouteNo="1" devices="tripinfo_carflow20.0 routing_carflow20.0" vType="car2" speedFactor="1.11" vaporized=""/>
    <tripinfo id="carflow30.2" depart="00:01:16" departLane="D20_0" departPos="6.10" departSpeed="0.00" departDelay="00:00:090.33" arrival="00:04:35" arrivalLane="D21_0" arrivalPos="486.40" arrivalSpeed="13.21" duration="00:03:19" routeLength="1957.56" waitingTime="00:00:30" waitingCount="1" stopTime="00:00:00" timeLoss="00:01:080.66" rerouteNo="1" devices="tripinfo_carflow30.2 routing_carflow30.2" vType="car2" speedFactor="1.09" vaporized=""/>
    <tripinfo id="carflow33.2" depart="00:01:10" departLane="D22_0" departPos="6.10" departSpeed="0.00" departDelay="00:00:030.33" arrival="00:04:42" arrivalLane="D15_0" arrivalPos="500.00" arrivalSpeed="12.25" duration="00:03:32" routeLength="2475.83" waitingTime="00:00:09" waitingCount="1" stopTime="00:00:00" timeLoss="00:00:460.37" rerouteNo="1" devices="tripinfo_carflow33.2 routing_carflow33.2" vType="car2" speedFactor="1.08" vaporized=""/>
    <tripinfo id="carflow29.3" depart="00:01:46" departLane="D20_0" departPos="5.10" departSpeed="0.00" departDelay="00:00:06" arrival="00:04:42" arrivalLane="D17_0" arrivalPos="486.40" arrivalSpeed="11.80" duration="00:02:56" routeLength="1994.90" waitingTime="00:00:01" waitingCount="1" stopTime="00:00:00" timeLoss="00:00:340.69" rerouteNo="1" devices="tripinfo_carflow29.3 routing_carflow29.3" vType="car4" speedFactor="1.02" vaporized=""/>
    <tripinfo id="carflow11.1" depart="00:00:47" departLane="D4_0" departPos="4.10" departSpeed="0.00" departDelay="00:00:130.67" arrival="00:04:44" arrivalLane="D11_0" arrivalPos="486.40" arrivalSpeed="12.41" duration="00:03:57" routeLength="2478.37" waitingTime="00:00:00" waitingCount="0" stopTime="00:00:00" timeLoss="00:00:400.46" rerouteNo="1" devices="tripinfo_carflow11.1 routing_carflow11.1" vType="car3" speedFactor="0.91" vaporized=""/>
    <tripinfo id="carflow35.2" depart="00:01:15" departLane="D22_0" departPos="6.10" departSpeed="0.00" departDelay="00:00:080.33" arrival="00:04:44" arrivalLane="D19_1" arrivalPos="486.40" arrivalSpeed="15.90" duration="00:03:29" routeLength="1991.15" waitingTime="00:00:39" waitingCount="4" stopTime="00:00:00" timeLoss="00:01:380.52" rerouteNo="1" devices="tripinfo_carflow35.2 routing_carflow35.2" vType="car2" speedFactor="1.31" vaporized=""/>
    <tripinfo id="carflow36.3" depart="00:01:51" departLane="D22_0" departPos="5.10" departSpeed="0.00" departDelay="00:00:11" arrival="00:04:44" arrivalLane="D23_0" arrivalPos="486.40" arrivalSpeed="13.81" duration="00:02:53" routeLength="1994.90" waitingTime="00:00:22" waitingCount="1" stopTime="00:00:00" timeLoss="00:00:500.60" rerouteNo="1" devices="tripinfo_carflow36.3 routing_carflow36.3" vType="car4" speedFactor="1.18" vaporized=""/>
    <tripinfo id="carflow20.1" depart="00:00:42" departLane="D8_0" departPos="6.10" departSpeed="0.00" departDelay="00:00:080.67" arrival="00:04:45" arrivalLane="D9_0" arrivalPos="248.50" arrivalSpeed="11.17" duration="00:04:03" routeLength="2476.37" waitingTime="00:00:19" waitingCount="1" stopTime="00:00:00" timeLoss="00:01:050.99" rerouteNo="1" devices="tripinfo_carflow20.1 routing_carflow20.1" vType="car2" speedFactor="1.01" vaporized=""/>
    <tripinfo id="carflow20.2" depart="00:01:14" departLane="D8_0" departPos="6.10" departSpeed="0.00" departDelay="00:00:070.33" arrival="00:04:45" arrivalLane="D9_1" arrivalPos="248.50" arrivalSpeed="14.62" duration="00:03:31" routeLength="2476.37" waitingTime="00:00:00" waitingCount="0" stopTime="00:00:00" timeLoss="00:00:420.9" rerouteNo="1" devices="tripinfo_carflow20.2 routing_carflow20.2" vType="car2" speedFactor="1.06" vaporized=""/>
    <tripinfo id="carflow7.0" depart="00:00:00" departLane="D4_0" departPos="4.60" departSpeed="0.00" departDelay="00:00:00" arrival="00:04:49" arrivalLane="D1_0" arrivalPos="500.00" arrivalSpeed="13.07" duration="00:04:49" routeLength="3993.45" waitingTime="00:00:00" waitingCount="0" stopTime="00:00:00" timeLoss="00:00:380.87" rerouteNo="1" devices="tripinfo_carflow7.0 routing_carflow7.0" vType="car" speedFactor="1.16" vaporized=""/>
    <tripinfo id="carflow11.2" depart="00:01:16" departLane="D4_0" departPos="4.10" departSpeed="0.00" departDelay="00:00:090.33" arrival="00:04:51" arrivalLane="D11_0" arrivalPos="486.40" arrivalSpeed="10.80" duration="00:03:35" routeLength="2478.37" waitingTime="00:00:00" waitingCount="0" stopTime="00:00:00" timeLoss="00:00:370.4" rerouteNo="1" devices="tripinfo_carflow11.2 routing_carflow11.2" vType="car3" speedFactor="1.01" vaporized=""/>
    <tripinfo id="carflow36.2" depart="00:01:18" departLane="D22_0" departPos="5.10" departSpeed="0.00" departDelay="00:00:110.33" arrival="00:04:51" arrivalLane="D23_0" arrivalPos="486.40" arrivalSpeed="12.52" duration="00:03:33" routeLength="1994.90" waitingTime="00:00:23" waitingCount="2" stopTime="00:00:00" timeLoss="00:01:020.50" rerouteNo="1" devices="tripinfo_carflow36.2 routing_carflow36.2" vType="car4" speedFactor="0.96" vaporized=""/>
    <tripinfo id="carflow41.3" depart="00:01:53" departLane="D24_0" departPos="5.10" departSpeed="0.00" departDelay="00:00:13" arrival="00:04:53" arrivalLane="D21_0" arrivalPos="486.40" arrivalSpeed="10.69" duration="00:03:00" routeLength="1994.90" waitingTime="00:00:00" waitingCount="0" stopTime="00:00:00" timeLoss="00:00:260.78" rerouteNo="1" devices="tripinfo_carflow41.3 routing_carflow41.3" vType="car4" speedFactor="0.94" vaporized=""/>
    <tripinfo id="carflow51.4" depart="00:02:18" departLane="D12_0" departPos="4.10" departSpeed="0.00" departDelay="00:00:040.67" arrival="00:04:54" arrivalLane="D11_1" arrivalPos="486.40" arrivalSpeed="11.10" duration="00:02:36" routeLength="973.38" waitingTime="00:01:00" waitingCount="1" stopTime="00:00:00" timeLoss="00:01:220.71" rerouteNo="0" devices="tripinfo_carflow51.4 routing_carflow51.4" vType="car3" speedFactor="0.97" vaporized=""/>
    <tripinfo id="carflow51.5" depart="00:02:49" departLane="D12_0" departPos="4.10" departSpeed="0.00" departDelay="00:00:020.34" arrival="00:04:54" arrivalLane="D11_2" arrivalPos="486.40" arrivalSpeed="12.92" duration="00:02:05" routeLength="973.38" waitingTime="00:00:34" waitingCount="2" stopTime="00:00:00" timeLoss="00:00:590.46" rerouteNo="0" devices="tripinfo_carflow51.5 routing_carflow51.5" vType="car3" speedFactor="1.09" vaporized=""/>
    <tripinfo id="carflow10.0" depart="00:00:07" departLane="D4_0" departPos="4.60" departSpeed="0.00" departDelay="00:00:07" arrival="00:04:57" arrivalLane="D9_0" arrivalPos="248.50" arrivalSpeed="12.56" duration="00:04:50" routeLength="3477.69" waitingTime="00:00:00" waitingCount="0" stopTime="00:00:00" timeLoss="00:00:500.38" rerouteNo="1" devices="tripinfo_carflow10.0 routing_carflow10.0" vType="car" speedFactor="1.05" vaporized=""/>
    <tripinfo id="carflow51.6" depart="00:03:22" departLane="D12_0" departPos="4.10" departSpeed="0.00" departDelay="00:00:02" arrival="00:05:01" arrivalLane="D11_0" arrivalPos="486.40" arrivalSpeed="12.96" duration="00:01:39" routeLength="973.38" waitingTime="00:00:00" waitingCount="0" stopTime="00:00:00" timeLoss="00:00:280.81" rerouteNo="0" devices="tripinfo_carflow51.6 routing_carflow51.6" vType="car3" speedFactor="1.02" vaporized=""/>
    <tripinfo id="carflow2.0" depart="00:00:00" departLane="D2_0" departPos="4.10" departSpeed="0.00" departDelay="00:00:00" arrival="00:05:02" arrivalLane="D3_0" arrivalPos="500.00" arrivalSpeed="12.39" duration="00:05:02" routeLength="3960.36" waitingTime="00:00:00" waitingCount="0" stopTime="00:00:00" timeLoss="00:00:450.13" rerouteNo="1" devices="tripinfo_carflow2.0 routing_carflow2.0" vType="car3" speedFactor="1.12" vaporized=""/>
    <tripinfo id="carflow22.3" depart="00:01:40" departLane="D18_0" departPos="4.10" departSpeed="0.00" departDelay="00:00:00" arrival="00:05:03" arrivalLane="D13_0" arrivalPos="500.00" arrivalSpeed="12.54" duration="00:03:23" routeLength="2477.83" waitingTime="00:00:00" waitingCount="0" stopTime="00:00:00" timeLoss="00:00:280.96" rerouteNo="1" devices="tripinfo_carflow22.3 routing_carflow22.3" vType="car3" speedFactor="1.03" vaporized=""/>
    <tripinfo id="carflow29.2" depart="00:01:12" departLane="D20_0" departPos="5.10" departSpeed="0.00" departDelay="00:00:050.33" arrival="00:05:05" arrivalLane="D17_0" arrivalPos="486.40" arrivalSpeed="10.86" duration="00:03:53" routeLength="1994.90" waitingTime="00:00:29" waitingCount="1" stopTime="00:00:00" timeLoss="00:01:070.21" rerouteNo="1" devices="tripinfo_carflow29.2 routing_carflow29.2" vType="car4" speedFactor="0.87" vaporized=""/>
    <tripinfo id="carflow34.1" depart="00:00:40" departLane="D22_0" departPos="5.10" departSpeed="0.00" departDelay="00:00:060.67" arrival="00:05:06" arrivalLane="D17_1" arrivalPos="486.40" arrivalSpeed="15.18" duration="00:04:26" routeLength="2976.61" waitingTime="00:00:17" waitingCount="2" stopTime="00:00:00" timeLoss="00:01:160.32" rerouteNo="1" devices="tripinfo_carflow34.1 routing_carflow34.1" vType="car4" speedFactor="1.14" vaporized=""/>
    <tripinfo id="carflow30.3" depart="00:01:50" departLane="D20_0" departPos="6.10" departSpeed="0.00" departDelay="00:00:10" arrival="00:05:14" arrivalLane="D21_0" arrivalPos="486.40" arrivalSpeed="12.17" duration="00:03:24" routeLength="1957.56" waitingTime="00:00:00" waitingCount="0" stopTime="00:00:00" timeLoss="00:00:450.57" rerouteNo="1" devices="tripinfo_carflow30.3 routing_carflow30.3" vType="car2" speedFactor="0.90" vaporized=""/>