<?xml version="1.0" encoding="UTF-8"?>

<!-- generated on Sun Jan 31 23:08:49 2021 by Eclipse SUMO sumo Version 1.8.0
<configuration xmlns:xsi="http://www.w3.org/2001/XMLSchema-instance" xsi:noNamespaceSchemaLocation="http://sumo.dlr.de/xsd/sumoConfiguration.xsd">

    <input>
        <net-file value="./config/demo.net.xml"/>
        <route-files value="./config/demo.rou30000.xml"/>
        <additional-files value="./config/demo.detector.xml"/>
    </input>

    <output>
        <human-readable-time value="true"/>
        <summary-output value="./config/demo.summary.xml"/>
        <tripinfo-output value="./config/demo.tripinfo.xml"/>
        <statistic-output value="./config/demo.statistic.xml"/>
    </output>

    <processing>
        <scale value="1"/>
        <time-to-teleport value="140"/>
        <waiting-time-memory value="50"/>
    </processing>

    <report>
        <no-warnings value="true"/>
        <duration-log.disable value="true"/>
        <no-step-log value="true"/>
    </report>

    <traci_server>
        <remote-port value="8017"/>
    </traci_server>

    <random_number>
        <seed value="3967"/>
    </random_number>

    <gui_only>
        <gui-settings-file value="./config/demo.settings.xml"/>
    </gui_only>

</configuration>
-->

<tripinfos xmlns:xsi="http://www.w3.org/2001/XMLSchema-instance" xsi:noNamespaceSchemaLocation="http://sumo.dlr.de/xsd/tripinfo_file.xsd">
    <tripinfo id="carflow50.0" depart="00:00:03" departLane="D10_0" departPos="6.10" departSpeed="0.00" departDelay="00:00:03" arrival="00:02:17" arrivalLane="D9_0" arrivalPos="248.50" arrivalSpeed="13.85" duration="00:02:14" routeLength="971.38" waitingTime="00:00:41" waitingCount="1" stopTime="00:00:00" timeLoss="00:01:040.98" rerouteNo="1" devices="tripinfo_carflow50.0 routing_carflow50.0" vType="car2" speedFactor="1.03" vaporized=""/>
    <tripinfo id="carflow50.1" depart="00:00:37" departLane="D10_0" departPos="6.10" departSpeed="0.00" departDelay="00:00:030.67" arrival="00:02:28" arrivalLane="D9_0" arrivalPos="248.50" arrivalSpeed="13.18" duration="00:01:51" routeLength="971.38" waitingTime="00:00:08" waitingCount="2" stopTime="00:00:00" timeLoss="00:00:360.47" rerouteNo="1" devices="tripinfo_carflow50.1 routing_carflow50.1" vType="car2" speedFactor="0.95" vaporized=""/>
    <tripinfo id="carflow36.0" depart="00:00:09" departLane="D22_0" departPos="5.10" departSpeed="0.00" departDelay="00:00:09" arrival="00:02:45" arrivalLane="D23_0" arrivalPos="486.40" arrivalSpeed="12.11" duration="00:02:36" routeLength="1994.90" waitingTime="00:00:00" waitingCount="0" stopTime="00:00:00" timeLoss="00:00:210.14" rerouteNo="1" devices="tripinfo_carflow36.0 routing_carflow36.0" vType="car4" speedFactor="1.07" vaporized=""/>
    <tripinfo id="carflow50.2" depart="00:01:11" departLane="D10_0" departPos="6.10" departSpeed="0.00" departDelay="00:00:040.33" arrival="00:02:46" arrivalLane="D9_0" arrivalPos="248.50" arrivalSpeed="13.03" duration="00:01:35" routeLength="971.38" waitingTime="00:00:00" waitingCount="0" stopTime="00:00:00" timeLoss="00:00:190.81" rerouteNo="1" devices="tripinfo_carflow50.2 routing_carflow50.2" vType="car2" speedFactor="0.94" vaporized=""/>
    <tripinfo id="carflow51.0" depart="00:00:02" departLane="D12_0" departPos="4.10" departSpeed="0.00" departDelay="00:00:02" arrival="00:02:54" arrivalLane="D11_0" arrivalPos="486.40" arrivalSpeed="11.54" duration="00:02:52" routeLength="973.38" waitingTime="00:01:11" waitingCount="1" stopTime="00:00:00" timeLoss="00:01:340.29" rerouteNo="0" devices="tripinfo_carflow51.0 routing_carflow51.0" vType="car3" speedFactor="0.92" vaporized=""/>
    <tripinfo id="carflow51.1" depart="00:00:37" departLane="D12_0" departPos="4.10" departSpeed="0.00" departDelay="00:00:030.67" arrival="00:02:58" arrivalLane="D11_0" arrivalPos="486.40" arrivalSpeed="11.68" duration="00:02:21" routeLength="973.38" waitingTime="00:00:34" waitingCount="1" stopTime="00:00:00" timeLoss="00:01:020.47" rerouteNo="0" devices="tripinfo_carflow51.1 routing_carflow51.1" vType="car3" speedFactor="0.90" vaporized=""/>
    <tripinfo id="carflow51.3" depart="00:01:43" departLane="D12_0" departPos="4.10" departSpeed="0.00" departDelay="00:00:03" arrival="00:02:58" arrivalLane="D11_2" arrivalPos="486.40" arrivalSpeed="16.35" duration="00:01:15" routeLength="973.38" waitingTime="00:00:00" waitingCount="0" stopTime="00:00:00" timeLoss="00:00:170.79" rerouteNo="0" devices="tripinfo_carflow51.3 routing_carflow51.3" vType="car3" speedFactor="1.25" vaporized=""/>
    <tripinfo id="carflow30.0" depart="00:00:13" departLane="D20_0" departPos="6.10" departSpeed="0.00" departDelay="00:00:13" arrival="00:03:00" arrivalLane="D21_0" arrivalPos="486.40" arrivalSpeed="12.26" duration="00:02:47" routeLength="1957.56" waitingTime="00:00:00" waitingCount="0" stopTime="00:00:00" timeLoss="00:00:320.67" rerouteNo="1" devices="tripinfo_carflow30.0 routing_carflow30.0" vType="car2" speedFactor="1.06" vaporized=""/>
    <tripinfo id="carflow51.2" depart="00:01:09" departLane="D12_0" departPos="4.10" departSpeed="0.00" departDelay="00:00:020.33" arrival="00:03:00" arrivalLane="D11_1" arrivalPos="486.40" arrivalSpeed="13.11" duration="00:01:51" routeLength="973.38" waitingTime="00:00:07" waitingCount="1" stopTime="00:00:00" timeLoss="00:00:360.9" rerouteNo="0" devices="tripinfo_carflow51.2 routing_carflow51.2" vType="car3" speedFactor="0.96" vaporized=""/>
    <tripinfo id="carflow41.0" depart="00:00:12" departLane="D24_0" departPos="5.10" departSpeed="0.00" departDelay="00:00:12" arrival="00:03:08" arrivalLane="D21_0" arrivalPos="486.40" arrivalSpeed="12.14" duration="00:02:56" routeLength="1994.90" waitingTime="00:00:01" waitingCount="1" stopTime="00:00:00" timeLoss="00:00:250.98" rerouteNo="1" devices="tripinfo_carflow41.0 routing_carflow41.0" vType="car4" speedFactor="0.96" vaporized=""/>
    <tripinfo id="carflow33.0" depart="00:00:03" departLane="D22_0" departPos="6.10" departSpeed="0.00" departDelay="00:00:03" arrival="00:03:09" arrivalLane="D15_0" arrivalPos="500.00" arrivalSpeed="14.48" duration="00:03:06" routeLength="2475.83" waitingTime="00:00:00" waitingCount="0" stopTime="00:00:00" timeLoss="00:00:270.1" rerouteNo="1" devices="tripinfo_carflow33.0 routing_carflow33.0" vType="car2" speedFactor="1.13" vaporized=""/>
    <tripinfo id="carflow35.0" depart="00:00:07" departLane="D22_0" departPos="6.10" departSpeed="0.00" departDelay="00:00:07" arrival="00:03:22" arrivalLane="D19_0" arrivalPos="486.40" arrivalSpeed="10.09" duration="00:03:15" routeLength="1991.15" waitingTime="00:00:00" waitingCount="0" stopTime="00:00:00" timeLoss="00:00:350.95" rerouteNo="1" devices="tripinfo_carflow35.0 routing_carflow35.0" vType="car2" speedFactor="0.91" vaporized=""/>
    <tripinfo id="carflow16.0" depart="00:00:11" departLane="D6_0" departPos="5.10" departSpeed="0.00" departDelay="00:00:11" arrival="00:03:25" arrivalLane="D11_0" arrivalPos="486.40" arrivalSpeed="12.79" duration="00:03:14" routeLength="2495.48" waitingTime="00:00:03" waitingCount="1" stopTime="00:00:00" timeLoss="00:00:330.66" rerouteNo="1" devices="tripinfo_carflow16.0 routing_carflow16.0" vType="car4" speedFactor="1.13" vaporized=""/>
    <tripinfo id="carflow22.0" depart="00:00:00" departLane="D18_0" departPos="4.10" departSpeed="0.00" departDelay="00:00:00" arrival="00:03:28" arrivalLane="D13_0" arrivalPos="500.00" arrivalSpeed="12.21" duration="00:03:28" routeLength="2477.83" waitingTime="00:00:00" waitingCount="0" stopTime="00:00:00" timeLoss="00:00:310.7" rerouteNo="1" devices="tripinfo_carflow22.0 routing_carflow22.0" vType="car3" speedFactor="1.01" vaporized=""/>
    <tripinfo id="carflow29.0" depart="00:00:07" departLane="D20_0" departPos="5.10" departSpeed="0.00" departDelay="00:00:07" arrival="00:03:32" arrivalLane="D17_0" arrivalPos="486.40" arrivalSpeed="14.71" duration="00:03:25" routeLength="1994.90" waitingTime="00:00:40" waitingCount="2" stopTime="00:00:00" timeLoss="00:01:080.81" rerouteNo="1" devices="tripinfo_carflow29.0 routing_carflow29.0" vType="car4" speedFactor="1.06" vaporized=""/>
    <tripinfo id="carflow39.0" depart="00:00:06" departLane="D24_0" departPos="5.10" departSpeed="0.00" departDelay="00:00:06" arrival="00:03:34" arrivalLane="D17_0" arrivalPos="486.40" arrivalSpeed="13.47" duration="00:03:28" routeLength="1958.50" waitingTime="00:00:26" waitingCount="1" stopTime="00:00:00" timeLoss="00:01:030.96" rerouteNo="1" devices="tripinfo_carflow39.0 routing_carflow39.0" vType="car4" speedFactor="0.99" vaporized=""/>
    <tripinfo id="carflow38.0" depart="00:00:03" departLane="D24_0" departPos="6.10" departSpeed="0.00" departDelay="00:00:03" arrival="00:03:38" arrivalLane="D15_0" arrivalPos="500.00" arrivalSpeed="11.33" duration="00:03:35" routeLength="2493.94" waitingTime="00:00:00" waitingCount="0" stopTime="00:00:00" timeLoss="00:00:310.83" rerouteNo="1" devices="tripinfo_carflow38.0 routing_carflow38.0" vType="car2" speedFactor="0.99" vaporized=""/>
    <tripinfo id="carflow24.1" depart="00:00:40" departLane="D18_0" departPos="5.10" departSpeed="0.00" departDelay="00:00:060.67" arrival="00:03:46" arrivalLane="D19_0" arrivalPos="486.40" arrivalSpeed="12.31" duration="00:03:06" routeLength="1994.90" waitingTime="00:00:13" waitingCount="3" stopTime="00:00:00" timeLoss="00:00:520.75" rerouteNo="1" devices="tripinfo_carflow24.1 routing_carflow24.1" vType="car4" speedFactor="1.08" vaporized=""/>
    <tripinfo id="carflow24.0" depart="00:00:07" departLane="D18_0" departPos="5.10" departSpeed="0.00" departDelay="00:00:07" arrival="00:03:48" arrivalLane="D19_1" arrivalPos="486.40" arrivalSpeed="12.56" duration="00:03:41" routeLength="1994.90" waitingTime="00:00:46" waitingCount="2" stopTime="00:00:00" timeLoss="00:01:260.67" rerouteNo="1" devices="tripinfo_carflow24.0 routing_carflow24.0" vType="car4" speedFactor="1.07" vaporized=""/>
    <tripinfo id="carflow39.1" depart="00:00:41" departLane="D24_0" departPos="5.10" departSpeed="0.00" departDelay="00:00:070.67" arrival="00:03:54" arrivalLane="D17_0" arrivalPos="486.40" arrivalSpeed="9.79" duration="00:03:13" routeLength="1958.50" waitingTime="00:00:00" waitingCount="0" stopTime="00:00:00" timeLoss="00:00:350.91" rerouteNo="1" devices="tripinfo_carflow39.1 routing_carflow39.1" vType="car4" speedFactor="0.91" vaporized=""/>
    <tripinfo id="carflow41.1" depart="00:00:51" departLane="D24_0" departPos="5.10" departSpeed="0.00" departDelay="00:00:170.67" arrival="00:03:58" arrivalLane="D21_0" arrivalPos="486.40" arrivalSpeed="10.54" duration="00:03:07" routeLength="1994.90" waitingTime="00:00:00" waitingCount="0" stopTime="00:00:00" timeLoss="00:00:290.43" rerouteNo="1" devices="tripinfo_carflow41.1 routing_carflow41.1" vType="car4" speedFactor="0.92" vaporized=""/>
    <tripinfo id="carflow34.0" depart="00:00:06" departLane="D22_0" departPos="5.10" departSpeed="0.00" departDelay="00:00:06" arrival="00:03:59" arrivalLane="D17_0" arrivalPos="486.40" arrivalSpeed="13.74" duration="00:03:53" routeLength="2976.61" waitingTime="00:00:03" waitingCount="1" stopTime="00:00:00" timeLoss="00:00:420.13" rerouteNo="1" devices="tripinfo_carflow34.0 routing_carflow34.0" vType="car4" speedFactor="1.13" vaporized=""/>
    <tripinfo id="carflow30.1" depart="00:00:44" departLane="D20_0" departPos="6.10" departSpeed="0.00" departDelay="00:00:100.67" arrival="00:03:59" arrivalLane="D21_1" arrivalPos="486.40" arrivalSpeed="15.31" duration="00:03:15" routeLength="1957.56" waitingTime="00:00:17" waitingCount="5" stopTime="00:00:00" timeLoss="00:01:050.2" rerouteNo="1" devices="tripinfo_carflow30.1 routing_carflow30.1" vType="car2" speedFactor="1.11" vaporized=""/>
    <tripinfo id="carflow11.1" depart="00:00:48" departLane="D4_0" departPos="4.10" departSpeed="0.00" departDelay="00:00:140.67" arrival="00:04:01" arrivalLane="D11_1" arrivalPos="486.40" arrivalSpeed="13.39" duration="00:03:13" routeLength="2478.37" waitingTime="00:00:00" waitingCount="0" stopTime="00:00:00" timeLoss="00:00:250.84" rerouteNo="1" devices="tripinfo_carflow11.1 routing_carflow11.1" vType="car3" speedFactor="1.07" vaporized=""/>
    <tripinfo id="carflow11.0" depart="00:00:11" departLane="D4_0" departPos="4.10" departSpeed="0.00" departDelay="00:00:11" arrival="00:04:03" arrivalLane="D11_0" arrivalPos="486.40" arrivalSpeed="12.63" duration="00:03:52" routeLength="2478.37" waitingTime="00:00:00" waitingCount="0" stopTime="00:00:00" timeLoss="00:00:370.93" rerouteNo="1" devices="tripinfo_carflow11.0 routing_carflow11.0" vType="car3" speedFactor="0.93" vaporized=""/>
    <tripinfo id="carflow22.2" depart="00:01:07" departLane="D18_0" departPos="4.10" departSpeed="0.00" departDelay="00:00:000.33" arrival="00:04:03" arrivalLane="D13_0" arrivalPos="500.00" arrivalSpeed="15.61" duration="00:02:56" routeLength="2477.83" waitingTime="00:00:00" waitingCount="0" stopTime="00:00:00" timeLoss="00:00:230.24" rerouteNo="1" devices="tripinfo_carflow22.2 routing_carflow22.2" vType="car3" speedFactor="1.18" vaporized=""/>
    <tripinfo id="carflow30.2" depart="00:01:14" departLane="D20_0" departPos="6.10" departSpeed="0.00" departDelay="00:00:070.33" arrival="00:04:06" arrivalLane="D21_0" arrivalPos="486.40" arrivalSpeed="12.63" duration="00:02:52" routeLength="1957.56" waitingTime="00:00:00" waitingCount="0" stopTime="00:00:00" timeLoss="00:00:380.91" rerouteNo="1" devices="tripinfo_carflow30.2 routing_carflow30.2" vType="car2" speedFactor="1.08" vaporized=""/>
    <tripinfo id="carflow22.1" depart="00:00:34" departLane="D18_0" departPos="4.10" departSpeed="0.00" departDelay="00:00:000.67" arrival="00:04:16" arrivalLane="D13_0" arrivalPos="500.00" arrivalSpeed="10.49" duration="00:03:42" routeLength="2477.83" waitingTime="00:00:02" waitingCount="2" stopTime="00:00:00" timeLoss="00:00:400.14" rerouteNo="1" devices="tripinfo_carflow22.1 routing_carflow22.1" vType="car3" speedFactor="0.99" vaporized=""/>
    <tripinfo id="carflow50.4" depart="00:02:17" departLane="D10_0" departPos="6.10" departSpeed="0.00" departDelay="00:00:030.67" arrival="00:04:18" arrivalLane="D9_2" arrivalPos="248.50" arrivalSpeed="14.54" duration="00:02:01" routeLength="971.38" waitingTime="00:00:34" waitingCount="2" stopTime="00:00:00" timeLoss="00:00:570.98" rerouteNo="1" devices="tripinfo_carflow50.4 routing_carflow50.4" vType="car2" speedFactor="1.13" vaporized=""/>
    <tripinfo id="carflow26.0" depart="00:00:12" departLane="D18_0" departPos="5.10" departSpeed="0.00" departDelay="00:00:12" arrival="00:04:20" arrivalLane="D23_0" arrivalPos="486.40" arrivalSpeed="11.17" duration="00:04:08" routeLength="1992.09" waitingTime="00:00:57" waitingCount="3" stopTime="00:00:00" timeLoss="00:01:420.47" rerouteNo="1" devices="tripinfo_carflow26.0 routing_carflow26.0" vType="car4" speedFactor="0.99" vaporized=""/>
    <tripinfo id="carflow27.1" depart="00:00:34" departLane="D20_0" departPos="4.10" departSpeed="0.00" departDelay="00:00:000.67" arrival="00:04:20" arrivalLane="D13_0" arrivalPos="500.00" arrivalSpeed="13.92" duration="00:03:46" routeLength="2495.94" waitingTime="00:00:12" waitingCount="1" stopTime="00:00:00" timeLoss="00:00:540.32" rerouteNo="1" devices="tripinfo_carflow27.1 routing_carflow27.1" vType="car3" speedFactor="1.05" vaporized=""/>
    <tripinfo id="carflow50.3" depart="00:01:44" departLane="D10_0" departPos="6.10" departSpeed="0.00" departDelay="00:00:04" arrival="00:04:20" arrivalLane="D9_0" arrivalPos="248.50" arrivalSpeed="13.44" duration="00:02:36" routeLength="971.38" waitingTime="00:01:00" waitingCount="1" stopTime="00:00:00" timeLoss="00:01:230.29" rerouteNo="1" devices="tripinfo_carflow50.3 routing_carflow50.3" vType="car2" speedFactor="0.98" vaporized=""/>
    <tripinfo id="carflow50.5" depart="00:02:50" departLane="D10_0" departPos="6.10" departSpeed="0.00" departDelay="00:00:030.34" arrival="00:04:22" arrivalLane="D9_1" arrivalPos="248.50" arrivalSpeed="13.19" duration="00:01:32" routeLength="971.38" waitingTime="00:00:06" waitingCount="1" stopTime="00:00:00" timeLoss="00:00:290.46" rerouteNo="1" devices="tripinfo_carflow50.5 routing_carflow50.5" vType="car2" speedFactor="1.13" vaporized=""/>
    <tripinfo id="carflow26.1" depart="00:00:48" departLane="D18_0" departPos="5.10" departSpeed="0.00" departDelay="00:00:140.67" arrival="00:04:23" arrivalLane="D23_1" arrivalPos="486.40" arrivalSpeed="12.69" duration="00:03:35" routeLength="1992.09" waitingTime="00:00:33" waitingCount="1" stopTime="00:00:00" timeLoss="00:01:090.51" rerouteNo="1" devices="tripinfo_carflow26.1 routing_carflow26.1" vType="car4" speedFactor="1.00" vaporized=""/>
    <tripinfo id="carflow29.1" depart="00:00:41" departLane="D20_0" departPos="5.10" departSpeed="0.00" departDelay="00:00:070.67" arrival="00:04:23" arrivalLane="D17_0" arrivalPos="486.40" arrivalSpeed="11.54" duration="00:03:42" routeLength="1994.90" waitingTime="00:00:24" waitingCount="3" stopTime="00:00:00" timeLoss="00:01:080.5" rerouteNo="1" devices="tripinfo_carflow29.1 routing_carflow29.1" vType="car4" speedFactor="0.93" vaporized=""/>
    <tripinfo id="carflow26.2" depart="00:01:20" departLane="D18_0" departPos="5.10" departSpeed="0.00" departDelay="00:00:130.33" arrival="00:04:25" arrivalLane="D23_0" arrivalPos="486.40" arrivalSpeed="14.21" duration="00:03:05" routeLength="1992.09" waitingTime="00:00:08" waitingCount="1" stopTime="00:00:00" timeLoss="00:00:480.81" rerouteNo="1" devices="tripinfo_carflow26.2 routing_carflow26.2" vType="car4" speedFactor="1.07" vaporized=""/>
    <tripinfo id="carflow27.2" depart="00:01:07" departLane="D20_0" departPos="4.10" departSpeed="0.00" departDelay="00:00:000.33" arrival="00:04:28" arrivalLane="D13_0" arrivalPos="500.00" arrivalSpeed="13.13" duration="00:03:21" routeLength="2495.94" waitingTime="00:00:00" waitingCount="0" stopTime="00:00:00" timeLoss="00:00:290.58" rerouteNo="1" devices="tripinfo_carflow27.2 routing_carflow27.2" vType="car3" speedFactor="1.06" vaporized=""/>
    <tripinfo id="carflow29.2" depart="00:01:12" departLane="D20_0" departPos="5.10" departSpeed="0.00" departDelay="00:00:050.33" arrival="00:04:33" arrivalLane="D17_0" arrivalPos="486.40" arrivalSpeed="12.42" duration="00:03:21" routeLength="1994.90" waitingTime="00:00:22" waitingCount="1" stopTime="00:00:00" timeLoss="00:00:530.89" rerouteNo="1" devices="tripinfo_carflow29.2 routing_carflow29.2" vType="car4" speedFactor="0.98" vaporized=""/>
    <tripinfo id="carflow43.2" depart="00:01:07" departLane="D12_0" departPos="4.60" departSpeed="0.00" departDelay="00:00:000.33" arrival="00:04:33" arrivalLane="D9_0" arrivalPos="248.50" arrivalSpeed="11.03" duration="00:03:26" routeLength="2015.97" waitingTime="00:00:13" waitingCount="2" stopTime="00:00:00" timeLoss="00:00:560.80" rerouteNo="1" devices="tripinfo_carflow43.2 routing_carflow43.2" vType="car" speedFactor="0.98" vaporized=""/>
    <tripinfo id="carflow43.0" depart="00:00:00" departLane="D12_0" departPos="4.60" departSpeed="0.00" departDelay="00:00:00" arrival="00:04:35" arrivalLane="D9_1" arrivalPos="248.50" arrivalSpeed="12.71" duration="00:04:35" routeLength="2019.94" waitingTime="00:01:18" waitingCount="2" stopTime="00:00:00" timeLoss="00:02:110.92" rerouteNo="1" devices="tripinfo_carflow43.0 routing_carflow43.0" vType="car" speedFactor="1.03" vaporized=""/>
    <tripinfo id="carflow39.2" depart="00:01:13" departLane="D24_0" departPos="5.10" departSpeed="0.00" departDelay="00:00:060.33" arrival="00:04:35" arrivalLane="D17_1" arrivalPos="486.40" arrivalSpeed="10.39" duration="00:03:22" routeLength="1958.50" waitingTime="00:00:00" waitingCount="0" stopTime="00:00:00" timeLoss="00:00:360.38" rerouteNo="1" devices="tripinfo_carflow39.2 routing_carflow39.2" vType="car4" speedFactor="0.86" vaporized=""/>
    <tripinfo id="carflow26.3" depart="00:01:52" departLane="D18_0" departPos="5.10" departSpeed="0.00" departDelay="00:00:12" arrival="00:04:39" arrivalLane="D23_0" arrivalPos="486.40" arrivalSpeed="13.69" duration="00:02:47" routeLength="1992.09" waitingTime="00:00:00" waitingCount="0" stopTime="00:00:00" timeLoss="00:00:310.99" rerouteNo="1" devices="tripinfo_carflow26.3 routing_carflow26.3" vType="car4" speedFactor="1.07" vaporized=""/>
    <tripinfo id="carflow36.1" depart="00:00:48" departLane="D22_0" departPos="5.10" departSpeed="0.00" departDelay="00:00:140.67" arrival="00:04:43" arrivalLane="D23_0" arrivalPos="486.40" arrivalSpeed="16.10" duration="00:03:55" routeLength="1994.90" waitingTime="00:01:07" waitingCount="3" stopTime="00:00:00" timeLoss="00:01:560.72" rerouteNo="1" devices="tripinfo_carflow36.1 routing_carflow36.1" vType="car4" speedFactor="1.22" vaporized=""/>
    <tripinfo id="carflow42.1" depart="00:00:34" departLane="D10_0" departPos="6.10" departSpeed="0.00" departDelay="00:00:000.67" arrival="00:04:44" arrivalLane="D11_0" arrivalPos="486.40" arrivalSpeed="15.84" duration="00:04:10" routeLength="2017.41" waitingTime="00:01:06" waitingCount="4" stopTime="00:00:00" timeLoss="00:02:020.86" rerouteNo="1" devices="tripinfo_carflow42.1 routing_carflow42.1" vType="car2" speedFactor="1.16" vaporized=""/>
    <tripinfo id="carflow43.1" depart="00:00:34" departLane="D12_0" departPos="4.60" departSpeed="0.00" departDelay="00:00:000.67" arrival="00:04:44" arrivalLane="D9_0" arrivalPos="248.50" arrivalSpeed="13.12" duration="00:04:10" routeLength="2019.94" waitingTime="00:00:52" waitingCount="3" stopTime="00:00:00" timeLoss="00:01:380.91" rerouteNo="1" devices="tripinfo_carflow43.1 routing_carflow43.1" vType="car" speedFactor="0.98" vaporized=""/>
    <tripinfo id="carflow36.2" depart="00:01:19" departLane="D22_0" departPos="5.10" departSpeed="0.00" departDelay="00:00:120.33" arrival="00:04:47" arrivalLane="D23_1" arrivalPos="486.40" arrivalSpeed="13.52" duration="00:03:28" routeLength="1994.90" waitingTime="00:00:28" waitingCount="5" stopTime="00:00:00" timeLoss="00:01:130.47" rerouteNo="1" devices="tripinfo_carflow36.2 routing_carflow36.2" vType="car4" speedFactor="1.07" vaporized=""/>
    <tripinfo id="carflow39.3" depart="00:01:46" departLane="D24_0" departPos="5.10" departSpeed="0.00" departDelay="00:00:06" arrival="00:04:47" arrivalLane="D17_0" arrivalPos="486.40" arrivalSpeed="10.24" duration="00:03:01" routeLength="1958.50" waitingTime="00:00:00" waitingCount="0" stopTime="00:00:00" timeLoss="00:00:300.95" rerouteNo="1" devices="tripinfo_carflow39.3 routing_carflow39.3" vType="car4" speedFactor="0.95" vaporized=""/>
    <tripinfo id="carflow27.0" depart="00:00:00" departLane="D20_0" departPos="4.10" departSpeed="0.00" departDelay="00:00:00" arrival="00:04:49" arrivalLane="D13_0" arrivalPos="500.00" arrivalSpeed="9.81" duration="00:04:49" routeLength="2495.94" waitingTime="00:00:39" waitingCount="2" stopTime="00:00:00" timeLoss="00:01:250.72" rerouteNo="1" devices="tripinfo_carflow27.0 routing_carflow27.0" vType="car3" speedFactor="0.89" vaporized=""/>
    <tripinfo id="carflow42.0" depart="00:00:00" departLane="D10_0" departPos="6.10" departSpeed="0.00" departDelay="00:00:00" arrival="00:04:51" arrivalLane="D11_0" arrivalPos="486.40" arrivalSpeed="11.03" duration="00:04:51" routeLength="2017.41" waitingTime="00:01:23" waitingCount="4" stopTime="00:00:00" timeLoss="00:02:190.35" rerouteNo="1" devices="tripinfo_carflow42.0 routing_carflow42.0" vType="car2" speedFactor="0.96" vaporized=""/>
    <tripinfo id="carflow33.1" depart="00:00:38" departLane="D22_0" departPos="6.10" departSpeed="0.00" departDelay="00:00:040.67" arrival="00:04:54" arrivalLane="D15_0" arrivalPos="500.00" arrivalSpeed="14.03" duration="00:04:16" routeLength="2475.83" waitingTime="00:00:54" waitingCount="2" stopTime="00:00:00" timeLoss="00:01:410.40" rerouteNo="1" devices="tripinfo_carflow33.1 routing_carflow33.1" vType="car2" speedFactor="1.16" vaporized=""/>
    <tripinfo id="carflow51.4" depart="00:02:17" departLane="D12_0" departPos="4.10" departSpeed="0.00" departDelay="00:00:030.67" arrival="00:04:56" arrivalLane="D11_0" arrivalPos="486.40" arrivalSpeed="10.26" duration="00:02:39" routeLength="973.38" waitingTime="00:00:55" waitingCount="5" stopTime="00:00:00" timeLoss="00:01:230.21" rerouteNo="0" devices="tripinfo_carflow51.4 routing_carflow51.4" vType="car3" speedFactor="0.94" vaporized=""/>
    <tripinfo id="carflow51.5" depart="00:02:50" departLane="D12_0" departPos="4.10" departSpeed="0.00" departDelay="00:00:030.34" arrival="00:04:56" arrivalLane="D11_1" arrivalPos="486.40" arrivalSpeed="11.91" duration="00:02:06" routeLength="973.38" waitingTime="00:00:33" waitingCount="2" stopTime="00:00:00" timeLoss="00:00:570.97" rerouteNo="0" devices="tripinfo_carflow51.5 routing_carflow51.5" vType="car3" speedFactor="1.04" vaporized=""/>
    <tripinfo id="carflow51.6" depart="00:03:25" departLane="D12_0" departPos="4.10" departSpeed="0.00" departDelay="00:00:05" arrival="00:04:58" arrivalLane="D11_2" arrivalPos="486.40" arrivalSpeed="12.96" duration="00:01:33" routeLength="973.38" waitingTime="00:00:03" waitingCount="2" stopTime="00:00:00" timeLoss="00:00:310.4" rerouteNo="0" devices="tripinfo_carflow51.6 routing_carflow51.6" vType="car3" speedFactor="1.15" vaporized=""/>
    <tripinfo id="carflow28.0" depart="00:00:03" departLane="D20_0" departPos="6.10" departSpeed="0.00" departDelay="00:00:03" arrival="00:05:00" arrivalLane="D15_0" arrivalPos="500.00" arrivalSpeed="12.07" duration="00:04:57" routeLength="3437.93" waitingTime="00:00:00" waitingCount="0" stopTime="00:00:00" timeLoss="00:00:570.14" rerouteNo="1" devices="tripinfo_carflow28.0 routing_carflow28.0" vType="car2" speedFactor="1.04" vaporized=""/>
    <tripinfo id="carflow42.2" depart="00:01:07" departLane="D10_0" departPos="6.10" departSpeed="0.00" departDelay="00:00:000.33" arrival="00:05:01" arrivalLane="D11_0" arrivalPos="486.40" arrivalSpeed="9.94" duration="00:03:54" routeLength="2013.59" waitingTime="00:00:05" waitingCount="3" stopTime="00:00:00" timeLoss="00:00:590.67" rerouteNo="1" devices="tripinfo_carflow42.2 routing_carflow42.2" vType="car2" speedFactor="0.84" vaporized=""/>
    <tripinfo id="carflow41.3" depart="00:01:52" departLane="D24_0" departPos="5.10" departSpeed="0.00" departDelay="00:00:12" arrival="00:05:01" arrivalLane="D21_0" arrivalPos="486.40" arrivalSpeed="11.64" duration="00:03:09" routeLength="1994.90" waitingTime="00:00:00" waitingCount="0" stopTime="00:00:00" timeLoss="00:00:290.50" rerouteNo="1" devices="tripinfo_carflow41.3 routing_carflow41.3" vType="car4" speedFactor="0.90" vaporized=""/>
    <tripinfo id="carflow20.0" depart="00:00:11" departLane="D8_0" departPos="6.10" departSpeed="0.00" departDelay="00:00:11" arrival="00:05:04" arrivalLane="D9_0" arrivalPos="248.50" arrivalSpeed="9.85" duration="00:04:53" routeLength="2476.37" waitingTime="00:00:25" waitingCount="3" stopTime="00:00:00" timeLoss="00:01:240.95" rerouteNo="1" devices="tripinfo_carflow20.0 routing_carflow20.0" vType="car2" speedFactor="0.86" vaporized=""/>
    <tripinfo id="carflow25.1" depart="00:00:44" departLane="D18_0" departPos="6.10" departSpeed="0.00" departDelay="00:00:100.67" arrival="00:05:04" arrivalLane="D21_0" arrivalPos="486.40" arrivalSpeed="12.79" duration="00:04:20" routeLength="2975.62" waitingTime="00:00:04" waitingCount="1" stopTime="00:00:00" timeLoss="00:00:550.93" rerouteNo="1" devices="tripinfo_carflow25.1 routing_carflow25.1" vType="car2" speedFactor="1.06" vaporized=""/>
    <tripinfo id="carflow35.1" depart="00:00:45" departLane="D22_0" departPos="6.10" departSpeed="0.00" departDelay="00:00:110.67" arrival="00:05:04" arrivalLane="D19_0" arrivalPos="486.40" arrivalSpeed="9.53" duration="00:04:19" routeLength="1991.15" waitingTime="00:00:25" waitingCount="3" stopTime="00:00:00" timeLoss="00:01:190.82" rerouteNo="1" devices="tripinfo_carflow35.1 routing_carflow35.1" vType="car2" speedFactor="0.81" vaporized=""/>
    <tripinfo id="carflow37.0" depart="00:00:00" departLane="D24_0" departPos="4.10" departSpeed="0.00" departDelay="00:00:00" arrival="00:05:06" arrivalLane="D13_0" arrivalPos="500.00" arrivalSpeed="10.10" duration="00:05:06" routeLength="3440.33" waitingTime="00:00:00" waitingCount="0" stopTime="00:00:00" timeLoss="00:00:490.98" rerouteNo="1" devices="tripinfo_carflow37.0 routing_carflow37.0" vType="car3" speedFactor="0.98" vaporized=""/>
    <tripinfo id="carflow20.2" depart="00:01:17" departLane="D8_0" departPos="6.10" departSpeed="0.00" departDelay="00:00:100.33" arrival="00:05:06" arrivalLane="D9_1" arrivalPos="248.50" arrivalSpeed="12.81" duration="00:03:49" routeLength="2476.37" waitingTime="00:00:00" waitingCount="0" stopTime="00:00:00" timeLoss="00:00:480.36" rerouteNo="1" devices="tripinfo_carflow20.2 routing_carflow20.2" vType="car2" speedFactor="0.99" vaporized=""/>
    <tripinfo id="carflow25.0" depart="00:00:10" departLane="D18_0" departPos="6.10" departSpeed="0.00" departDelay="00:00:10" arrival="00:05:07" arrivalLane="D21_1" arrivalPos="486.40" arrivalSpeed="12.73" duration="00:04:57" routeLength="2975.62" waitingTime="00:00:18" waitingCount="1" stopTime="00:00:00" timeLoss="00:01:100.80" rerouteNo="1" devices="tripinfo_carflow25.0 routing_carflow25.0" vType="car2" speedFactor="0.96" vaporized=""/>
    <tripinfo id="carflow38.1" depart="00:00:38" departLane="D24_0" departPos="6.10" departSpeed="0.00" departDelay="00:00:040.67" arrival="00:05:07" arrivalLane="D15_0" arrivalPos="500.00" arrivalSpeed="11.42" duration="00:04:29" routeLength="2493.94" waitingTime="00:00:00" waitingCount="0" stopTime="00:00:00" timeLoss="00:00:490.57" rerouteNo="1" devices="tripinfo_carflow38.1 routing_carflow38.1" vType="car2" speedFactor="0.82" vaporized=""/>
    <tripinfo id="carflow41.2" depart="00:01:20" departLane="D24_0" departPos="5.10" departSpeed="0.00" departDelay="00:00:130.33" arrival="00:05:07" arrivalLane="D21_0" arrivalPos="486.40" arrivalSpeed="8.01" duration="00:03:47" routeLength="1994.90" waitingTime="00:00:00" waitingCount="0" stopTime="00:00:00" timeLoss="00:00:400.27" rerouteNo="1" devices="tripinfo_carflow41.2 routing_carflow41.2" vType="car4" speedFactor="0.77" vaporized=""/>