<?xml version="1.0" encoding="UTF-8"?>

<!-- generated on 2021年02月20日 星期六 10时24分18秒 by Eclipse SUMO GUI Version 1.8.0
<configuration xmlns:xsi="http://www.w3.org/2001/XMLSchema-instance" xsi:noNamespaceSchemaLocation="http://sumo.dlr.de/xsd/sumoConfiguration.xsd">

    <input>
        <net-file value="./config/pingshan.net.xml"/>
        <route-files value="./config/pingshan.rou.xml"/>
        <additional-files value="./config/pingshan.detector.xml"/>
    </input>

    <output>
        <human-readable-time value="true"/>
        <summary-output value="./config/pingshan.summary.xml"/>
        <tripinfo-output value="./config/pingshan.tripinfo.xml"/>
        <statistic-output value="./config/pingshan.statistic.xml"/>
    </output>

    <processing>
        <time-to-teleport value="600"/>
        <waiting-time-memory value="50"/>
    </processing>

    <report>
        <no-warnings value="true"/>
        <duration-log.disable value="true"/>
        <no-step-log value="true"/>
    </report>

    <traci_server>
        <remote-port value="8000"/>
    </traci_server>

    <random_number>
        <seed value="0"/>
    </random_number>

    <gui_only>
        <gui-settings-file value="./config/pingshan.settings.xml"/>
        <quit-on-end value="true"/>
        <start value="true"/>
    </gui_only>

</configuration>
-->

<tripinfos xmlns:xsi="http://www.w3.org/2001/XMLSchema-instance" xsi:noNamespaceSchemaLocation="http://sumo.dlr.de/xsd/tripinfo_file.xsd">
    <tripinfo id="carflow140.0" depart="00:00:09" departLane="In_17_0" departPos="4.10" departSpeed="0.00" departDelay="00:00:09" arrival="00:01:49" arrivalLane="Out_21_0" arrivalPos="71.10" arrivalSpeed="13.49" duration="00:01:40" routeLength="640.73" waitingTime="00:00:00" waitingCount="0" stopTime="00:00:00" timeLoss="00:00:340.19" rerouteNo="1" devices="tripinfo_carflow140.0 routing_carflow140.0" vType="car3" speedFactor="1.01" vaporized=""/>
    <tripinfo id="carflow140_2.0" depart="00:00:12" departLane="In_17_0" departPos="4.10" departSpeed="0.00" departDelay="00:00:12" arrival="00:01:59" arrivalLane="Out_23_0" arrivalPos="94.09" arrivalSpeed="13.83" duration="00:01:47" routeLength="742.50" waitingTime="00:00:00" waitingCount="0" stopTime="00:00:00" timeLoss="00:00:380.2" rerouteNo="1" devices="tripinfo_carflow140_2.0 routing_carflow140_2.0" vType="car3" speedFactor="1.11" vaporized=""/>
    <tripinfo id="carflow37.0" depart="00:00:02" departLane="In_05_0" departPos="4.60" departSpeed="0.00" departDelay="00:00:02" arrival="00:02:22" arrivalLane="Out_07_0" arrivalPos="54.87" arrivalSpeed="14.70" duration="00:02:20" routeLength="1742.84" waitingTime="00:00:00" waitingCount="0" stopTime="00:00:00" timeLoss="00:00:280.56" rerouteNo="1" devices="tripinfo_carflow37.0 routing_carflow37.0" vType="car" speedFactor="1.13" vaporized=""/>
    <tripinfo id="carflow102.0" depart="00:00:23" departLane="In_11_0" departPos="4.60" departSpeed="0.00" departDelay="00:00:23" arrival="00:02:54" arrivalLane="Out_12_0" arrivalPos="48.85" arrivalSpeed="13.01" duration="00:02:31" routeLength="1876.90" waitingTime="00:00:00" waitingCount="0" stopTime="00:00:00" timeLoss="00:00:250.12" rerouteNo="1" devices="tripinfo_carflow102.0 routing_carflow102.0" vType="car" speedFactor="1.08" vaporized=""/>
    <tripinfo id="carflow76.0" depart="00:00:27" departLane="In_08_0" departPos="4.60" departSpeed="0.00" departDelay="00:00:27" arrival="00:02:57" arrivalLane="Out_15_0" arrivalPos="125.64" arrivalSpeed="16.86" duration="00:02:30" routeLength="1950.38" waitingTime="00:00:00" waitingCount="0" stopTime="00:00:00" timeLoss="00:00:330.75" rerouteNo="1" devices="tripinfo_carflow76.0 routing_carflow76.0" vType="car" speedFactor="1.22" vaporized=""/>
    <tripinfo id="carflow27.0" depart="00:00:03" departLane="In_04_0" departPos="4.10" departSpeed="0.00" departDelay="00:00:03" arrival="00:03:06" arrivalLane="Out_06_1" arrivalPos="71.50" arrivalSpeed="11.70" duration="00:03:03" routeLength="1546.26" waitingTime="00:00:39" waitingCount="1" stopTime="00:00:00" timeLoss="00:01:200.22" rerouteNo="1" devices="tripinfo_carflow27.0 routing_carflow27.0" vType="car3" speedFactor="1.09" vaporized=""/>
    <tripinfo id="carflow138.0" depart="00:00:02" departLane="In_17_0" departPos="4.10" departSpeed="0.00" departDelay="00:00:02" arrival="00:03:15" arrivalLane="Out_18_0" arrivalPos="267.23" arrivalSpeed="15.15" duration="00:03:13" routeLength="2046.86" waitingTime="00:00:00" waitingCount="0" stopTime="00:00:00" timeLoss="00:00:520.83" rerouteNo="1" devices="tripinfo_carflow138.0 routing_carflow138.0" vType="car3" speedFactor="1.22" vaporized=""/>
    <tripinfo id="carflow48.0" depart="00:00:11" departLane="In_06_0" departPos="4.60" departSpeed="0.00" departDelay="00:00:11" arrival="00:03:23" arrivalLane="Out_07_0" arrivalPos="54.87" arrivalSpeed="9.69" duration="00:03:12" routeLength="1442.43" waitingTime="00:00:37" waitingCount="2" stopTime="00:00:00" timeLoss="00:01:080.95" rerouteNo="1" devices="tripinfo_carflow48.0 routing_carflow48.0" vType="car" speedFactor="0.85" vaporized=""/>
    <tripinfo id="carflow152.0" depart="00:00:00" departLane="In_24_0" departPos="4.10" departSpeed="0.00" departDelay="00:00:00" arrival="00:03:25" arrivalLane="Out_19_0" arrivalPos="91.36" arrivalSpeed="12.52" duration="00:03:25" routeLength="2589.50" waitingTime="00:00:01" waitingCount="1" stopTime="00:00:00" timeLoss="00:00:390.98" rerouteNo="1" devices="tripinfo_carflow152.0 routing_carflow152.0" vType="car3" speedFactor="1.15" vaporized=""/>
    <tripinfo id="carflow134.0" depart="00:00:02" departLane="In_16_0" departPos="4.10" departSpeed="0.00" departDelay="00:00:02" arrival="00:03:27" arrivalLane="Out_18_0" arrivalPos="267.23" arrivalSpeed="11.53" duration="00:03:25" routeLength="2231.66" waitingTime="00:00:00" waitingCount="0" stopTime="00:00:00" timeLoss="00:00:500.50" rerouteNo="1" devices="tripinfo_carflow134.0 routing_carflow134.0" vType="car3" speedFactor="1.07" vaporized=""/>
    <tripinfo id="carflow140.1" depart="00:01:48" departLane="In_17_0" departPos="4.10" departSpeed="0.00" departDelay="00:00:08" arrival="00:03:35" arrivalLane="Out_21_0" arrivalPos="71.10" arrivalSpeed="11.93" duration="00:01:47" routeLength="640.73" waitingTime="00:00:00" waitingCount="0" stopTime="00:00:00" timeLoss="00:00:380.5" rerouteNo="1" devices="tripinfo_carflow140.1 routing_carflow140.1" vType="car3" speedFactor="0.95" vaporized=""/>
    <tripinfo id="carflow15.0" depart="00:00:04" departLane="In_03_0" departPos="4.60" departSpeed="0.00" departDelay="00:00:04" arrival="00:03:40" arrivalLane="Out_04_0" arrivalPos="379.18" arrivalSpeed="12.19" duration="00:03:36" routeLength="2444.14" waitingTime="00:00:00" waitingCount="0" stopTime="00:00:00" timeLoss="00:00:360.38" rerouteNo="1" devices="tripinfo_carflow15.0 routing_carflow15.0" vType="car" speedFactor="0.99" vaporized=""/>
    <tripinfo id="carflow48.1" depart="00:01:49" departLane="In_06_0" departPos="4.60" departSpeed="0.00" departDelay="00:00:09" arrival="00:04:06" arrivalLane="Out_07_0" arrivalPos="54.87" arrivalSpeed="10.58" duration="00:02:17" routeLength="1442.43" waitingTime="00:00:00" waitingCount="0" stopTime="00:00:00" timeLoss="00:00:250.41" rerouteNo="1" devices="tripinfo_carflow48.1 routing_carflow48.1" vType="car" speedFactor="0.94" vaporized=""/>
    <tripinfo id="carflow37.1" depart="00:01:43" departLane="In_05_0" departPos="4.60" departSpeed="0.00" departDelay="00:00:03" arrival="00:04:12" arrivalLane="Out_07_0" arrivalPos="54.87" arrivalSpeed="11.05" duration="00:02:29" routeLength="1742.84" waitingTime="00:00:00" waitingCount="0" stopTime="00:00:00" timeLoss="00:00:260.90" rerouteNo="1" devices="tripinfo_carflow37.1 routing_carflow37.1" vType="car" speedFactor="1.03" vaporized=""/>
    <tripinfo id="carflow143.0" depart="00:00:06" departLane="In_20_0" departPos="4.10" departSpeed="0.00" departDelay="00:00:06" arrival="00:04:16" arrivalLane="Out_18_0" arrivalPos="267.23" arrivalSpeed="13.38" duration="00:04:10" routeLength="2519.52" waitingTime="00:00:00" waitingCount="0" stopTime="00:00:00" timeLoss="00:00:580.33" rerouteNo="1" devices="tripinfo_carflow143.0 routing_carflow143.0" vType="car3" speedFactor="1.00" vaporized=""/>
    <tripinfo id="carflow133.0" depart="00:00:00" departLane="In_16_0" departPos="4.60" departSpeed="0.00" departDelay="00:00:00" arrival="00:04:23" arrivalLane="Out_17_0" arrivalPos="86.56" arrivalSpeed="9.49" duration="00:04:23" routeLength="1031.08" waitingTime="00:02:00" waitingCount="1" stopTime="00:00:00" timeLoss="00:02:390.86" rerouteNo="1" devices="tripinfo_carflow133.0 routing_carflow133.0" vType="car" speedFactor="0.85" vaporized=""/>
    <tripinfo id="carflow140_2.1" depart="00:01:50" departLane="In_17_0" departPos="4.10" departSpeed="0.00" departDelay="00:00:10" arrival="00:04:28" arrivalLane="Out_23_0" arrivalPos="94.09" arrivalSpeed="12.72" duration="00:02:38" routeLength="742.50" waitingTime="00:00:27" waitingCount="3" stopTime="00:00:00" timeLoss="00:01:140.70" rerouteNo="1" devices="tripinfo_carflow140_2.1 routing_carflow140_2.1" vType="car3" speedFactor="0.92" vaporized=""/>
    <tripinfo id="carflow65.0" depart="00:00:25" departLane="In_07_0" departPos="4.60" departSpeed="0.00" departDelay="00:00:25" arrival="00:04:29" arrivalLane="Out_13_0" arrivalPos="47.38" arrivalSpeed="11.09" duration="00:04:04" routeLength="2742.45" waitingTime="00:00:00" waitingCount="0" stopTime="00:00:00" timeLoss="00:00:420.6" rerouteNo="1" devices="tripinfo_carflow65.0 routing_carflow65.0" vType="car" speedFactor="0.98" vaporized=""/>
    <tripinfo id="carflow28.0" depart="00:00:06" departLane="In_04_0" departPos="4.60" departSpeed="0.00" departDelay="00:00:06" arrival="00:04:34" arrivalLane="Out_07_0" arrivalPos="54.87" arrivalSpeed="12.67" duration="00:04:28" routeLength="2487.97" waitingTime="00:00:36" waitingCount="1" stopTime="00:00:00" timeLoss="00:01:240.6" rerouteNo="1" devices="tripinfo_carflow28.0 routing_carflow28.0" vType="car" speedFactor="0.98" vaporized=""/>
    <tripinfo id="carflow16.0" depart="00:00:07" departLane="In_03_0" departPos="6.10" departSpeed="0.00" departDelay="00:00:07" arrival="00:04:40" arrivalLane="Out_05_0" arrivalPos="112.16" arrivalSpeed="12.77" duration="00:04:33" routeLength="3099.87" waitingTime="00:00:00" waitingCount="0" stopTime="00:00:00" timeLoss="00:00:570.67" rerouteNo="1" devices="tripinfo_carflow16.0 routing_carflow16.0" vType="car2" speedFactor="1.04" vaporized=""/>
    <tripinfo id="carflow66.0" depart="00:00:28" departLane="In_07_0" departPos="4.10" departSpeed="0.00" departDelay="00:00:28" arrival="00:04:42" arrivalLane="Out_14_0" arrivalPos="52.82" arrivalSpeed="15.93" duration="00:04:14" routeLength="3422.23" waitingTime="00:00:00" waitingCount="0" stopTime="00:00:00" timeLoss="00:00:420.57" rerouteNo="1" devices="tripinfo_carflow66.0 routing_carflow66.0" vType="car3" speedFactor="1.18" vaporized=""/>
    <tripinfo id="carflow3.0" depart="00:00:03" departLane="In_01_0" departPos="4.60" departSpeed="0.00" departDelay="00:00:03" arrival="00:04:44" arrivalLane="Out_04_0" arrivalPos="379.18" arrivalSpeed="12.02" duration="00:04:41" routeLength="3039.35" waitingTime="00:00:33" waitingCount="1" stopTime="00:00:00" timeLoss="00:01:110.65" rerouteNo="1" devices="tripinfo_carflow3.0 routing_carflow3.0" vType="car" speedFactor="1.05" vaporized=""/>
    <tripinfo id="carflow27.1" depart="00:01:43" departLane="In_04_0" departPos="4.10" departSpeed="0.00" departDelay="00:00:03" arrival="00:04:44" arrivalLane="Out_06_1" arrivalPos="71.50" arrivalSpeed="10.72" duration="00:03:01" routeLength="1546.26" waitingTime="00:00:17" waitingCount="1" stopTime="00:00:00" timeLoss="00:00:510.99" rerouteNo="1" devices="tripinfo_carflow27.1 routing_carflow27.1" vType="car3" speedFactor="0.87" vaporized=""/>
    <tripinfo id="carflow102.1" depart="00:01:59" departLane="In_11_0" departPos="4.60" departSpeed="0.00" departDelay="00:00:19" arrival="00:04:45" arrivalLane="Out_12_0" arrivalPos="48.85" arrivalSpeed="9.97" duration="00:02:46" routeLength="1876.90" waitingTime="00:00:00" waitingCount="0" stopTime="00:00:00" timeLoss="00:00:240.79" rerouteNo="1" devices="tripinfo_carflow102.1 routing_carflow102.1" vType="car" speedFactor="0.96" vaporized=""/>
</tripinfos>
