<?xml version="1.0" encoding="UTF-8"?>

<!-- generated on Tue Feb  2 20:01:29 2021 by Eclipse SUMO sumo Version 1.8.0
<configuration xmlns:xsi="http://www.w3.org/2001/XMLSchema-instance" xsi:noNamespaceSchemaLocation="http://sumo.dlr.de/xsd/sumoConfiguration.xsd">

    <input>
        <net-file value="./config/pingshan.net.xml"/>
        <route-files value="./config/pingshan.rou.xml"/>
        <additional-files value="./config/pingshan.detector.xml"/>
    </input>

    <output>
        <human-readable-time value="true"/>
        <summary-output value="./config/pingshan.summary.xml"/>
        <tripinfo-output value="./config/pingshan.tripinfo.xml"/>
        <statistic-output value="./config/pingshan.statistic.xml"/>
    </output>

    <processing>
        <scale value="1.2"/>
        <time-to-teleport value="140"/>
        <waiting-time-memory value="50"/>
    </processing>

    <report>
        <no-warnings value="true"/>
        <duration-log.disable value="true"/>
        <no-step-log value="true"/>
    </report>

    <traci_server>
        <remote-port value="8015"/>
    </traci_server>

    <random_number>
        <seed value="58567"/>
    </random_number>

    <gui_only>
        <gui-settings-file value="./config/pingshan.settings.xml"/>
    </gui_only>

</configuration>
-->

<tripinfos xmlns:xsi="http://www.w3.org/2001/XMLSchema-instance" xsi:noNamespaceSchemaLocation="http://sumo.dlr.de/xsd/tripinfo_file.xsd">
    <tripinfo id="carflow85.0" depart="00:00:24" departLane="In_09_0" departPos="4.60" departSpeed="0.00" departDelay="00:00:24" arrival="00:01:24" arrivalLane="Out_15_0" arrivalPos="125.64" arrivalSpeed="12.14" duration="00:01:00" routeLength="391.80" waitingTime="00:00:00" waitingCount="0" stopTime="00:00:00" timeLoss="00:00:320.89" rerouteNo="1" devices="tripinfo_carflow85.0 routing_carflow85.0" vType="car" speedFactor="1.06" vaporized=""/>
    <tripinfo id="carflow48.0" depart="00:00:08" departLane="In_06_0" departPos="4.60" departSpeed="0.00" departDelay="00:00:08" arrival="00:02:22" arrivalLane="Out_07_0" arrivalPos="54.87" arrivalSpeed="11.15" duration="00:02:14" routeLength="1442.43" waitingTime="00:00:00" waitingCount="0" stopTime="00:00:00" timeLoss="00:00:300.41" rerouteNo="1" devices="tripinfo_carflow48.0 routing_carflow48.0" vType="car" speedFactor="1.01" vaporized=""/>
    <tripinfo id="carflow132.0" depart="00:00:19" departLane="In_15_0" departPos="4.60" departSpeed="0.00" departDelay="00:00:19" arrival="00:02:22" arrivalLane="Out_14_2" arrivalPos="52.82" arrivalSpeed="13.70" duration="00:02:03" routeLength="1383.02" waitingTime="00:00:00" waitingCount="0" stopTime="00:00:00" timeLoss="00:00:310.16" rerouteNo="1" devices="tripinfo_carflow132.0 routing_carflow132.0" vType="car" speedFactor="1.10" vaporized=""/>
    <tripinfo id="carflow37.0" depart="00:00:03" departLane="In_05_0" departPos="4.60" departSpeed="0.00" departDelay="00:00:03" arrival="00:02:26" arrivalLane="Out_07_0" arrivalPos="54.87" arrivalSpeed="14.04" duration="00:02:23" routeLength="1742.84" waitingTime="00:00:01" waitingCount="1" stopTime="00:00:00" timeLoss="00:00:260.6" rerouteNo="1" devices="tripinfo_carflow37.0 routing_carflow37.0" vType="car" speedFactor="1.08" vaporized=""/>
    <tripinfo id="carflow27.0" depart="00:00:03" departLane="In_04_0" departPos="4.10" departSpeed="0.00" departDelay="00:00:03" arrival="00:02:34" arrivalLane="Out_06_1" arrivalPos="71.50" arrivalSpeed="14.63" duration="00:02:31" routeLength="1546.26" waitingTime="00:00:18" waitingCount="1" stopTime="00:00:00" timeLoss="00:00:500.73" rerouteNo="1" devices="tripinfo_carflow27.0 routing_carflow27.0" vType="car3" speedFactor="1.11" vaporized=""/>
    <tripinfo id="carflow129.0" depart="00:00:10" departLane="In_15_0" departPos="4.10" departSpeed="0.00" departDelay="00:00:10" arrival="00:02:58" arrivalLane="Out_08_0" arrivalPos="82.19" arrivalSpeed="12.27" duration="00:02:48" routeLength="1927.62" waitingTime="00:00:00" waitingCount="0" stopTime="00:00:00" timeLoss="00:00:310.96" rerouteNo="1" devices="tripinfo_carflow129.0 routing_carflow129.0" vType="car3" speedFactor="1.03" vaporized=""/>
    <tripinfo id="carflow15.0" depart="00:00:04" departLane="In_03_0" departPos="4.60" departSpeed="0.00" departDelay="00:00:04" arrival="00:03:06" arrivalLane="Out_04_0" arrivalPos="379.18" arrivalSpeed="13.80" duration="00:03:02" routeLength="2444.14" waitingTime="00:00:00" waitingCount="0" stopTime="00:00:00" timeLoss="00:00:300.7" rerouteNo="1" devices="tripinfo_carflow15.0 routing_carflow15.0" vType="car" speedFactor="1.16" vaporized=""/>
    <tripinfo id="carflow84.0" depart="00:00:21" departLane="In_09_0" departPos="4.10" departSpeed="0.00" departDelay="00:00:21" arrival="00:03:06" arrivalLane="Out_14_2" arrivalPos="52.82" arrivalSpeed="13.82" duration="00:02:45" routeLength="1472.31" waitingTime="00:00:17" waitingCount="1" stopTime="00:00:00" timeLoss="00:01:060.17" rerouteNo="1" devices="tripinfo_carflow84.0 routing_carflow84.0" vType="car3" speedFactor="1.09" vaporized=""/>
    <tripinfo id="carflow76.0" depart="00:00:24" departLane="In_08_0" departPos="4.60" departSpeed="0.00" departDelay="00:00:24" arrival="00:03:23" arrivalLane="Out_15_0" arrivalPos="125.64" arrivalSpeed="11.23" duration="00:02:59" routeLength="1950.38" waitingTime="00:00:00" waitingCount="0" stopTime="00:00:00" timeLoss="00:00:270.30" rerouteNo="1" devices="tripinfo_carflow76.0 routing_carflow76.0" vType="car" speedFactor="0.93" vaporized=""/>
    <tripinfo id="carflow85.1" depart="00:02:11" departLane="In_09_0" departPos="4.60" departSpeed="0.00" departDelay="00:00:31" arrival="00:03:30" arrivalLane="Out_15_0" arrivalPos="125.64" arrivalSpeed="11.97" duration="00:01:19" routeLength="391.80" waitingTime="00:00:06" waitingCount="4" stopTime="00:00:00" timeLoss="00:00:500.21" rerouteNo="1" devices="tripinfo_carflow85.1 routing_carflow85.1" vType="car" speedFactor="0.99" vaporized=""/>
    <tripinfo id="carflow102.0" depart="00:00:20" departLane="In_11_0" departPos="4.60" departSpeed="0.00" departDelay="00:00:20" arrival="00:03:49" arrivalLane="Out_12_0" arrivalPos="48.85" arrivalSpeed="8.87" duration="00:03:29" routeLength="1876.90" waitingTime="00:00:00" waitingCount="0" stopTime="00:00:00" timeLoss="00:00:350.95" rerouteNo="1" devices="tripinfo_carflow102.0 routing_carflow102.0" vType="car" speedFactor="0.78" vaporized=""/>
    <tripinfo id="carflow65.0" depart="00:00:30" departLane="In_07_0" departPos="4.60" departSpeed="0.00" departDelay="00:00:30" arrival="00:03:58" arrivalLane="Out_13_0" arrivalPos="47.38" arrivalSpeed="15.05" duration="00:03:28" routeLength="2742.45" waitingTime="00:00:00" waitingCount="0" stopTime="00:00:00" timeLoss="00:00:280.59" rerouteNo="1" devices="tripinfo_carflow65.0 routing_carflow65.0" vType="car" speedFactor="1.11" vaporized=""/>
    <tripinfo id="carflow125.0" depart="00:00:15" departLane="In_14_0" departPos="4.60" departSpeed="0.00" departDelay="00:00:15" arrival="00:03:59" arrivalLane="Out_15_0" arrivalPos="125.64" arrivalSpeed="11.25" duration="00:03:44" routeLength="1346.82" waitingTime="00:01:34" waitingCount="2" stopTime="00:00:00" timeLoss="00:02:030.55" rerouteNo="1" devices="tripinfo_carflow125.0 routing_carflow125.0" vType="car" speedFactor="0.98" vaporized=""/>
    <tripinfo id="carflow28.0" depart="00:00:06" departLane="In_04_0" departPos="4.60" departSpeed="0.00" departDelay="00:00:06" arrival="00:04:08" arrivalLane="Out_07_0" arrivalPos="54.87" arrivalSpeed="10.10" duration="00:04:02" routeLength="2487.97" waitingTime="00:00:01" waitingCount="1" stopTime="00:00:00" timeLoss="00:00:490.59" rerouteNo="1" devices="tripinfo_carflow28.0 routing_carflow28.0" vType="car" speedFactor="0.94" vaporized=""/>
    <tripinfo id="carflow85.2" depart="00:03:23" departLane="In_09_0" departPos="4.60" departSpeed="0.00" departDelay="00:00:03" arrival="00:04:08" arrivalLane="Out_15_0" arrivalPos="125.64" arrivalSpeed="12.15" duration="00:00:45" routeLength="391.80" waitingTime="00:00:00" waitingCount="0" stopTime="00:00:00" timeLoss="00:00:160.33" rerouteNo="1" devices="tripinfo_carflow85.2 routing_carflow85.2" vType="car" speedFactor="1.00" vaporized=""/>
    <tripinfo id="carflow123.0" depart="00:00:08" departLane="In_14_0" departPos="6.10" departSpeed="0.00" departDelay="00:00:08" arrival="00:04:09" arrivalLane="Out_09_0" arrivalPos="234.69" arrivalSpeed="12.37" duration="00:04:01" routeLength="1466.42" waitingTime="00:01:43" waitingCount="1" stopTime="00:00:00" timeLoss="00:02:150.64" rerouteNo="1" devices="tripinfo_carflow123.0 routing_carflow123.0" vType="car2" speedFactor="1.02" vaporized=""/>
    <tripinfo id="carflow123.1" depart="00:01:57" departLane="In_14_0" departPos="6.10" departSpeed="0.00" departDelay="00:00:17" arrival="00:04:11" arrivalLane="Out_09_0" arrivalPos="234.69" arrivalSpeed="13.36" duration="00:02:14" routeLength="1466.42" waitingTime="00:00:02" waitingCount="1" stopTime="00:00:00" timeLoss="00:00:400.78" rerouteNo="1" devices="tripinfo_carflow123.1 routing_carflow123.1" vType="car2" speedFactor="1.16" vaporized=""/>
    <tripinfo id="carflow118.0" depart="00:00:20" departLane="In_13_0" departPos="4.60" departSpeed="0.00" departDelay="00:00:20" arrival="00:04:14" arrivalLane="Out_14_1" arrivalPos="52.82" arrivalSpeed="13.14" duration="00:03:54" routeLength="1724.00" waitingTime="00:00:49" waitingCount="1" stopTime="00:00:00" timeLoss="00:01:450.55" rerouteNo="1" devices="tripinfo_carflow118.0 routing_carflow118.0" vType="car" speedFactor="0.99" vaporized=""/>
    <tripinfo id="carflow80.0" depart="00:00:08" departLane="In_09_0" departPos="6.10" departSpeed="0.00" departDelay="00:00:08" arrival="00:04:22" arrivalLane="Out_10_0" arrivalPos="74.92" arrivalSpeed="12.34" duration="00:04:14" routeLength="2775.25" waitingTime="00:00:00" waitingCount="0" stopTime="00:00:00" timeLoss="00:01:060.57" rerouteNo="1" devices="tripinfo_carflow80.0 routing_carflow80.0" vType="car2" speedFactor="1.09" vaporized=""/>
    <tripinfo id="carflow130.0" depart="00:00:14" departLane="In_15_0" departPos="6.10" departSpeed="0.00" departDelay="00:00:14" arrival="00:04:29" arrivalLane="Out_10_0" arrivalPos="74.92" arrivalSpeed="12.73" duration="00:04:15" routeLength="2686.46" waitingTime="00:00:00" waitingCount="0" stopTime="00:00:00" timeLoss="00:00:460.40" rerouteNo="1" devices="tripinfo_carflow130.0 routing_carflow130.0" vType="car2" speedFactor="0.93" vaporized=""/>
    <tripinfo id="carflow16.0" depart="00:00:08" departLane="In_03_0" departPos="6.10" departSpeed="0.00" departDelay="00:00:08" arrival="00:04:35" arrivalLane="Out_05_0" arrivalPos="112.16" arrivalSpeed="14.35" duration="00:04:27" routeLength="3099.87" waitingTime="00:00:00" waitingCount="0" stopTime="00:00:00" timeLoss="00:00:510.50" rerouteNo="1" devices="tripinfo_carflow16.0 routing_carflow16.0" vType="car2" speedFactor="1.04" vaporized=""/>
    <tripinfo id="carflow129.1" depart="00:01:53" departLane="In_15_0" departPos="4.10" departSpeed="0.00" departDelay="00:00:13" arrival="00:04:40" arrivalLane="Out_08_0" arrivalPos="82.19" arrivalSpeed="12.52" duration="00:02:47" routeLength="1927.62" waitingTime="00:00:00" waitingCount="0" stopTime="00:00:00" timeLoss="00:00:340.22" rerouteNo="1" devices="tripinfo_carflow129.1 routing_carflow129.1" vType="car3" speedFactor="1.05" vaporized=""/>
    <tripinfo id="carflow48.1" depart="00:01:57" departLane="In_06_0" departPos="4.60" departSpeed="0.00" departDelay="00:00:17" arrival="00:04:41" arrivalLane="Out_07_0" arrivalPos="54.87" arrivalSpeed="13.26" duration="00:02:44" routeLength="1442.43" waitingTime="00:00:13" waitingCount="2" stopTime="00:00:00" timeLoss="00:00:540.71" rerouteNo="1" devices="tripinfo_carflow48.1 routing_carflow48.1" vType="car" speedFactor="0.96" vaporized=""/>
    <tripinfo id="carflow125.1" depart="00:02:02" departLane="In_14_0" departPos="4.60" departSpeed="0.00" departDelay="00:00:22" arrival="00:04:41" arrivalLane="Out_15_0" arrivalPos="125.64" arrivalSpeed="10.54" duration="00:02:39" routeLength="1346.82" waitingTime="00:00:00" waitingCount="0" stopTime="00:00:00" timeLoss="00:00:310.33" rerouteNo="1" devices="tripinfo_carflow125.1 routing_carflow125.1" vType="car" speedFactor="0.77" vaporized=""/>
    <tripinfo id="carflow76.1" depart="00:01:42" departLane="In_08_0" departPos="4.60" departSpeed="0.00" departDelay="00:00:02" arrival="00:04:44" arrivalLane="Out_15_0" arrivalPos="125.64" arrivalSpeed="11.49" duration="00:03:02" routeLength="1950.38" waitingTime="00:00:01" waitingCount="1" stopTime="00:00:00" timeLoss="00:00:280.89" rerouteNo="1" devices="tripinfo_carflow76.1 routing_carflow76.1" vType="car" speedFactor="0.92" vaporized=""/>
    <tripinfo id="carflow83.0" depart="00:00:18" departLane="In_09_0" departPos="4.60" departSpeed="0.00" departDelay="00:00:18" arrival="00:04:47" arrivalLane="Out_13_0" arrivalPos="47.38" arrivalSpeed="11.66" duration="00:04:29" routeLength="2542.38" waitingTime="00:00:21" waitingCount="1" stopTime="00:00:00" timeLoss="00:01:330.17" rerouteNo="1" devices="tripinfo_carflow83.0 routing_carflow83.0" vType="car" speedFactor="1.06" vaporized=""/>
    <tripinfo id="carflow102.1" depart="00:02:02" departLane="In_11_0" departPos="4.60" departSpeed="0.00" departDelay="00:00:22" arrival="00:04:49" arrivalLane="Out_12_0" arrivalPos="48.85" arrivalSpeed="13.33" duration="00:02:47" routeLength="1876.90" waitingTime="00:00:01" waitingCount="1" stopTime="00:00:00" timeLoss="00:00:300.10" rerouteNo="1" devices="tripinfo_carflow102.1 routing_carflow102.1" vType="car" speedFactor="0.99" vaporized=""/>
    <tripinfo id="carflow116.0" depart="00:00:12" departLane="In_13_0" departPos="6.10" departSpeed="0.00" departDelay="00:00:12" arrival="00:04:52" arrivalLane="Out_10_0" arrivalPos="74.92" arrivalSpeed="14.62" duration="00:04:40" routeLength="3048.12" waitingTime="00:00:03" waitingCount="2" stopTime="00:00:00" timeLoss="00:01:11" rerouteNo="1" devices="tripinfo_carflow116.0 routing_carflow116.0" vType="car2" speedFactor="1.06" vaporized=""/>
    <tripinfo id="carflow103.0" depart="00:00:23" departLane="In_11_0" departPos="4.10" departSpeed="0.00" departDelay="00:00:23" arrival="00:04:55" arrivalLane="Out_14_0" arrivalPos="52.82" arrivalSpeed="12.90" duration="00:04:32" routeLength="3130.63" waitingTime="00:00:07" waitingCount="1" stopTime="00:00:00" timeLoss="00:00:580.79" rerouteNo="1" devices="tripinfo_carflow103.0 routing_carflow103.0" vType="car3" speedFactor="1.06" vaporized=""/>
    <tripinfo id="carflow95.0" depart="00:00:27" departLane="In_10_0" departPos="4.60" departSpeed="0.00" departDelay="00:00:27" arrival="00:05:00" arrivalLane="Out_15_0" arrivalPos="125.64" arrivalSpeed="12.49" duration="00:04:33" routeLength="2716.12" waitingTime="00:00:43" waitingCount="1" stopTime="00:00:00" timeLoss="00:01:350.19" rerouteNo="1" devices="tripinfo_carflow95.0 routing_carflow95.0" vType="car" speedFactor="1.11" vaporized=""/>
    <tripinfo id="carflow75.0" depart="00:00:21" departLane="In_08_0" departPos="4.10" departSpeed="0.00" departDelay="00:00:21" arrival="00:05:03" arrivalLane="Out_14_2" arrivalPos="52.82" arrivalSpeed="14.14" duration="00:04:42" routeLength="3051.05" waitingTime="00:00:28" waitingCount="1" stopTime="00:00:00" timeLoss="00:01:050.53" rerouteNo="1" devices="tripinfo_carflow75.0 routing_carflow75.0" vType="car3" speedFactor="1.02" vaporized=""/>
    <tripinfo id="carflow76.2" depart="00:02:08" departLane="In_08_0" departPos="4.60" departSpeed="0.00" departDelay="00:00:28" arrival="00:05:05" arrivalLane="Out_15_0" arrivalPos="125.64" arrivalSpeed="12.26" duration="00:02:57" routeLength="1950.38" waitingTime="00:00:00" waitingCount="0" stopTime="00:00:00" timeLoss="00:00:280.10" rerouteNo="1" devices="tripinfo_carflow76.2 routing_carflow76.2" vType="car" speedFactor="0.95" vaporized=""/>
    <tripinfo id="carflow15.1" depart="00:01:51" departLane="In_03_0" departPos="4.60" departSpeed="0.00" departDelay="00:00:11" arrival="00:05:09" arrivalLane="Out_04_0" arrivalPos="379.18" arrivalSpeed="14.58" duration="00:03:18" routeLength="2444.14" waitingTime="00:00:00" waitingCount="0" stopTime="00:00:00" timeLoss="00:00:350.41" rerouteNo="1" devices="tripinfo_carflow15.1 routing_carflow15.1" vType="car" speedFactor="1.09" vaporized=""/>
    <tripinfo id="carflow17.0" depart="00:00:10" departLane="In_03_0" departPos="4.10" departSpeed="0.00" departDelay="00:00:10" arrival="00:05:11" arrivalLane="Out_06_2" arrivalPos="71.50" arrivalSpeed="14.06" duration="00:05:01" routeLength="3209.47" waitingTime="00:00:11" waitingCount="1" stopTime="00:00:00" timeLoss="00:01:160.85" rerouteNo="1" devices="tripinfo_carflow17.0 routing_carflow17.0" vType="car3" speedFactor="1.03" vaporized=""/>
    <tripinfo id="carflow27.1" depart="00:01:50" departLane="In_04_0" departPos="4.10" departSpeed="0.00" departDelay="00:00:10" arrival="00:05:13" arrivalLane="Out_06_1" arrivalPos="71.50" arrivalSpeed="10.57" duration="00:03:23" routeLength="1546.26" waitingTime="00:00:44" waitingCount="1" stopTime="00:00:00" timeLoss="00:01:190.76" rerouteNo="1" devices="tripinfo_carflow27.1 routing_carflow27.1" vType="car3" speedFactor="0.91" vaporized=""/>
    <tripinfo id="carflow132.1" depart="00:02:02" departLane="In_15_0" departPos="4.60" departSpeed="0.00" departDelay="00:00:22" arrival="00:05:14" arrivalLane="Out_14_2" arrivalPos="52.82" arrivalSpeed="12.18" duration="00:03:12" routeLength="1383.02" waitingTime="00:00:42" waitingCount="4" stopTime="00:00:00" timeLoss="00:01:380.85" rerouteNo="1" devices="tripinfo_carflow132.1 routing_carflow132.1" vType="car" speedFactor="1.08" vaporized=""/>
    <tripinfo id="carflow91.0" depart="00:00:16" departLane="In_10_0" departPos="4.10" departSpeed="0.00" departDelay="00:00:16" arrival="00:05:26" arrivalLane="Out_09_0" arrivalPos="234.69" arrivalSpeed="12.93" duration="00:05:10" routeLength="2837.72" waitingTime="00:00:35" waitingCount="2" stopTime="00:00:00" timeLoss="00:01:290.92" rerouteNo="1" devices="tripinfo_carflow91.0 routing_carflow91.0" vType="car3" speedFactor="0.94" vaporized=""/>
    <tripinfo id="carflow47.0" depart="00:00:06" departLane="In_06_0" departPos="4.10" departSpeed="0.00" departDelay="00:00:06" arrival="00:05:31" arrivalLane="Out_03_2" arrivalPos="39.43" arrivalSpeed="15.04" duration="00:05:25" routeLength="3308.57" waitingTime="00:00:57" waitingCount="3" stopTime="00:00:00" timeLoss="00:01:490.51" rerouteNo="1" devices="tripinfo_carflow47.0 routing_carflow47.0" vType="car3" speedFactor="1.11" vaporized=""/>
    <tripinfo id="carflow101.0" depart="00:00:17" departLane="In_11_0" departPos="6.10" departSpeed="0.00" departDelay="00:00:17" arrival="00:05:32" arrivalLane="Out_09_0" arrivalPos="234.69" arrivalSpeed="13.10" duration="00:05:15" routeLength="3684.59" waitingTime="00:00:00" waitingCount="0" stopTime="00:00:00" timeLoss="00:01:130.5" rerouteNo="1" devices="tripinfo_carflow101.0 routing_carflow101.0" vType="car2" speedFactor="1.10" vaporized=""/>
    <tripinfo id="carflow91.1" depart="00:01:42" departLane="In_10_0" departPos="4.10" departSpeed="0.00" departDelay="00:00:02" arrival="00:05:35" arrivalLane="Out_09_0" arrivalPos="234.69" arrivalSpeed="13.14" duration="00:03:53" routeLength="2837.72" waitingTime="00:00:00" waitingCount="0" stopTime="00:00:00" timeLoss="00:00:500.25" rerouteNo="1" devices="tripinfo_carflow91.1 routing_carflow91.1" vType="car3" speedFactor="1.13" vaporized=""/>
    <tripinfo id="carflow125.2" depart="00:03:23" departLane="In_14_0" departPos="4.60" departSpeed="0.00" departDelay="00:00:03" arrival="00:05:39" arrivalLane="Out_15_0" arrivalPos="125.64" arrivalSpeed="12.03" duration="00:02:16" routeLength="1340.34" waitingTime="00:00:00" waitingCount="0" stopTime="00:00:00" timeLoss="00:00:330.78" rerouteNo="1" devices="tripinfo_carflow125.2 routing_carflow125.2" vType="car" speedFactor="0.98" vaporized=""/>
    <tripinfo id="carflow61.0" depart="00:00:14" departLane="In_07_0" departPos="4.60" departSpeed="0.00" departDelay="00:00:14" arrival="00:05:42" arrivalLane="Out_09_0" arrivalPos="234.69" arrivalSpeed="15.03" duration="00:05:28" routeLength="3737.73" waitingTime="00:00:30" waitingCount="1" stopTime="00:00:00" timeLoss="00:01:210.8" rerouteNo="1" devices="tripinfo_carflow61.0 routing_carflow61.0" vType="car" speedFactor="1.10" vaporized=""/>
    <tripinfo id="carflow27.2" depart="00:03:30" departLane="In_04_0" departPos="4.10" departSpeed="0.00" departDelay="00:00:10" arrival="00:05:50" arrivalLane="Out_06_1" arrivalPos="71.50" arrivalSpeed="11.59" duration="00:02:20" routeLength="1569.16" waitingTime="00:00:00" waitingCount="0" stopTime="00:00:00" timeLoss="00:00:260.90" rerouteNo="1" devices="tripinfo_carflow27.2 routing_carflow27.2" vType="car3" speedFactor="1.01" vaporized=""/>
    <tripinfo id="carflow122.0" depart="00:00:05" departLane="In_14_0" departPos="4.10" departSpeed="0.00" departDelay="00:00:05" arrival="00:05:52" arrivalLane="Out_07_0" arrivalPos="54.87" arrivalSpeed="9.34" duration="00:05:47" routeLength="3043.11" waitingTime="00:00:43" waitingCount="1" stopTime="00:00:00" timeLoss="00:01:430.2" rerouteNo="1" devices="tripinfo_carflow122.0 routing_carflow122.0" vType="car3" speedFactor="0.90" vaporized=""/>
    <tripinfo id="carflow124.0" depart="00:00:11" departLane="In_14_0" departPos="4.10" departSpeed="0.00" departDelay="00:00:11" arrival="00:05:56" arrivalLane="Out_11_0" arrivalPos="68.13" arrivalSpeed="9.08" duration="00:05:45" routeLength="3105.30" waitingTime="00:00:22" waitingCount="2" stopTime="00:00:00" timeLoss="00:01:300.39" rerouteNo="1" devices="tripinfo_carflow124.0 routing_carflow124.0" vType="car3" speedFactor="0.88" vaporized=""/>
    <tripinfo id="carflow3.0" depart="00:00:04" departLane="In_01_0" departPos="4.60" departSpeed="0.00" departDelay="00:00:04" arrival="00:05:57" arrivalLane="Out_04_0" arrivalPos="379.18" arrivalSpeed="11.66" duration="00:05:53" routeLength="3039.35" waitingTime="00:01:28" waitingCount="2" stopTime="00:00:00" timeLoss="00:02:120.90" rerouteNo="1" devices="tripinfo_carflow3.0 routing_carflow3.0" vType="car" speedFactor="1.00" vaporized=""/>
    <tripinfo id="carflow85.3" depart="00:03:52" departLane="In_09_0" departPos="4.60" departSpeed="0.00" departDelay="00:00:32" arrival="00:06:00" arrivalLane="Out_15_0" arrivalPos="125.64" arrivalSpeed="12.39" duration="00:02:08" routeLength="391.80" waitingTime="00:00:52" waitingCount="3" stopTime="00:00:00" timeLoss="00:01:410.7" rerouteNo="1" devices="tripinfo_carflow85.3 routing_carflow85.3" vType="car" speedFactor="1.08" vaporized=""/>
    <tripinfo id="carflow16.2" depart="00:01:55" departLane="In_03_0" departPos="6.10" departSpeed="0.00" departDelay="00:00:15" arrival="00:06:01" arrivalLane="Out_05_0" arrivalPos="112.16" arrivalSpeed="14.91" duration="00:04:06" routeLength="3099.87" waitingTime="00:00:15" waitingCount="1" stopTime="00:00:00" timeLoss="00:01:070.43" rerouteNo="1" devices="tripinfo_carflow16.2 routing_carflow16.2" vType="car2" speedFactor="1.25" vaporized=""/>
    <tripinfo id="carflow81.0" depart="00:00:12" departLane="In_09_0" departPos="4.10" departSpeed="0.00" departDelay="00:00:12" arrival="00:06:04" arrivalLane="Out_11_0" arrivalPos="68.13" arrivalSpeed="13.04" duration="00:05:52" routeLength="3619.13" waitingTime="00:00:08" waitingCount="1" stopTime="00:00:00" timeLoss="00:01:250.15" rerouteNo="1" devices="tripinfo_carflow81.0 routing_carflow81.0" vType="car3" speedFactor="0.99" vaporized=""/>
    <tripinfo id="carflow123.2" depart="00:03:36" departLane="In_14_0" departPos="6.10" departSpeed="0.00" departDelay="00:00:16" arrival="00:06:04" arrivalLane="Out_09_0" arrivalPos="234.69" arrivalSpeed="9.02" duration="00:02:28" routeLength="1466.42" waitingTime="00:00:00" waitingCount="0" stopTime="00:00:00" timeLoss="00:00:270.86" rerouteNo="1" devices="tripinfo_carflow123.2 routing_carflow123.2" vType="car2" speedFactor="0.90" vaporized=""/>
    <tripinfo id="carflow115.0" depart="00:00:08" departLane="In_13_0" departPos="4.10" departSpeed="0.00" departDelay="00:00:08" arrival="00:06:11" arrivalLane="Out_08_0" arrivalPos="82.19" arrivalSpeed="12.25" duration="00:06:03" routeLength="3340.90" waitingTime="00:01:06" waitingCount="3" stopTime="00:00:00" timeLoss="00:02:080.38" rerouteNo="1" devices="tripinfo_carflow115.0 routing_carflow115.0" vType="car3" speedFactor="1.03" vaporized=""/>
    <tripinfo id="carflow121.0" depart="00:00:03" departLane="In_14_0" departPos="4.10" departSpeed="0.00" departDelay="00:00:03" arrival="00:06:15" arrivalLane="Out_05_0" arrivalPos="112.16" arrivalSpeed="16.15" duration="00:06:12" routeLength="4343.45" waitingTime="00:00:52" waitingCount="3" stopTime="00:00:00" timeLoss="00:02:010.69" rerouteNo="1" devices="tripinfo_carflow121.0 routing_carflow121.0" vType="car3" speedFactor="1.26" vaporized=""/>
    <tripinfo id="carflow3.1" depart="00:01:51" departLane="In_01_0" departPos="4.60" departSpeed="0.00" departDelay="00:00:11" arrival="00:06:16" arrivalLane="Out_04_0" arrivalPos="379.18" arrivalSpeed="10.21" duration="00:04:25" routeLength="3039.35" waitingTime="00:00:00" waitingCount="0" stopTime="00:00:00" timeLoss="00:00:370.10" rerouteNo="1" devices="tripinfo_carflow3.1 routing_carflow3.1" vType="car" speedFactor="0.96" vaporized=""/>
    <tripinfo id="carflow130.1" depart="00:01:56" departLane="In_15_0" departPos="6.10" departSpeed="0.00" departDelay="00:00:16" arrival="00:06:17" arrivalLane="Out_10_0" arrivalPos="74.92" arrivalSpeed="11.43" duration="00:04:21" routeLength="2686.46" waitingTime="00:00:00" waitingCount="0" stopTime="00:00:00" timeLoss="00:00:500.34" rerouteNo="1" devices="tripinfo_carflow130.1 routing_carflow130.1" vType="car2" speedFactor="0.93" vaporized=""/>
    <tripinfo id="carflow18.0" depart="00:00:13" departLane="In_03_0" departPos="4.60" departSpeed="0.00" departDelay="00:00:13" arrival="00:06:20" arrivalLane="Out_07_0" arrivalPos="54.87" arrivalSpeed="12.32" duration="00:06:07" routeLength="3965.97" waitingTime="00:00:42" waitingCount="5" stopTime="00:00:00" timeLoss="00:01:450.26" rerouteNo="1" devices="tripinfo_carflow18.0 routing_carflow18.0" vType="car" speedFactor="1.09" vaporized=""/>
    <tripinfo id="carflow16.1" depart="00:01:40" departLane="In_03_0" departPos="6.10" departSpeed="0.00" departDelay="00:00:00" arrival="00:06:22" arrivalLane="Out_05_0" arrivalPos="112.16" arrivalSpeed="14.07" duration="00:04:42" routeLength="3099.87" waitingTime="00:00:01" waitingCount="1" stopTime="00:00:00" timeLoss="00:01:020.99" rerouteNo="1" devices="tripinfo_carflow16.1 routing_carflow16.1" vType="car2" speedFactor="1.02" vaporized=""/>
    <tripinfo id="carflow48.2" depart="00:03:37" departLane="In_06_0" departPos="4.60" departSpeed="0.00" departDelay="00:00:17" arrival="00:06:23" arrivalLane="Out_07_0" arrivalPos="54.87" arrivalSpeed="10.39" duration="00:02:46" routeLength="1442.43" waitingTime="00:00:16" waitingCount="1" stopTime="00:00:00" timeLoss="00:00:530.37" rerouteNo="1" devices="tripinfo_carflow48.2 routing_carflow48.2" vType="car" speedFactor="0.92" vaporized=""/>
    <tripinfo id="carflow125.3" depart="00:03:43" departLane="In_14_0" departPos="4.60" departSpeed="0.00" departDelay="00:00:23" arrival="00:06:23" arrivalLane="Out_15_0" arrivalPos="125.64" arrivalSpeed="8.85" duration="00:02:40" routeLength="1346.82" waitingTime="00:00:00" waitingCount="0" stopTime="00:00:00" timeLoss="00:00:300.18" rerouteNo="1" devices="tripinfo_carflow125.3 routing_carflow125.3" vType="car" speedFactor="0.76" vaporized=""/>
    <tripinfo id="carflow116.1" depart="00:01:40" departLane="In_13_0" departPos="6.10" departSpeed="0.00" departDelay="00:00:00" arrival="00:06:24" arrivalLane="Out_10_0" arrivalPos="74.92" arrivalSpeed="12.61" duration="00:04:44" routeLength="3048.12" waitingTime="00:00:00" waitingCount="0" stopTime="00:00:00" timeLoss="00:00:500.77" rerouteNo="1" devices="tripinfo_carflow116.1 routing_carflow116.1" vType="car2" speedFactor="0.95" vaporized=""/>
    <tripinfo id="carflow67.0" depart="00:00:35" departLane="In_07_0" departPos="4.60" departSpeed="0.00" departDelay="00:00:35" arrival="00:06:25" arrivalLane="Out_15_0" arrivalPos="125.64" arrivalSpeed="12.85" duration="00:05:50" routeLength="3616.63" waitingTime="00:00:57" waitingCount="1" stopTime="00:00:00" timeLoss="00:02:010.27" rerouteNo="1" devices="tripinfo_carflow67.0 routing_carflow67.0" vType="car" speedFactor="1.14" vaporized=""/>
    <tripinfo id="carflow76.3" depart="00:03:50" departLane="In_08_0" departPos="4.60" departSpeed="0.00" departDelay="00:00:30" arrival="00:06:28" arrivalLane="Out_15_0" arrivalPos="125.64" arrivalSpeed="12.98" duration="00:02:38" routeLength="1950.38" waitingTime="00:00:00" waitingCount="0" stopTime="00:00:00" timeLoss="00:00:270.36" rerouteNo="1" devices="tripinfo_carflow76.3 routing_carflow76.3" vType="car" speedFactor="1.09" vaporized=""/>
    <tripinfo id="carflow92.0" depart="00:00:20" departLane="In_10_0" departPos="4.60" departSpeed="0.00" departDelay="00:00:20" arrival="00:06:31" arrivalLane="Out_12_0" arrivalPos="48.85" arrivalSpeed="11.31" duration="00:06:11" routeLength="4177.74" waitingTime="00:00:22" waitingCount="1" stopTime="00:00:00" timeLoss="00:01:180.23" rerouteNo="1" devices="tripinfo_carflow92.0 routing_carflow92.0" vType="car" speedFactor="1.03" vaporized=""/>
    <tripinfo id="carflow65.1" depart="00:02:08" departLane="In_07_0" departPos="4.60" departSpeed="0.00" departDelay="00:00:28" arrival="00:06:31" arrivalLane="Out_13_0" arrivalPos="47.38" arrivalSpeed="11.53" duration="00:04:23" routeLength="2742.45" waitingTime="00:00:00" waitingCount="0" stopTime="00:00:00" timeLoss="00:00:420.94" rerouteNo="1" devices="tripinfo_carflow65.1 routing_carflow65.1" vType="car" speedFactor="0.90" vaporized=""/>